Program Version,EnergyPlus, Version 8.6.0-198c6a3cff, YMD=2017.03.17 11:54
1,5,Environment Title[],Latitude[deg],Longitude[deg],Time Zone[],Elevation[m]
2,6,Day of Simulation[],Month[],Day of Month[],DST Indicator[1=yes 0=no],Hour[],StartMinute[],EndMinute[],DayType
3,3,Cumulative Day of Simulation[],Month[],Day of Month[],DST Indicator[1=yes 0=no],DayType  ! When Daily Meters Requested
4,2,Cumulative Days of Simulation[],Month[]  ! When Monthly Meters Requested
5,1,Cumulative Days of Simulation[] ! When Run Period Meters Requested
8,1,Electricity:Facility [J] !TimeStep
8047,1,Gas:Facility [J] !TimeStep
End of Data Dictionary
1,SIMULATION,  37.62,-122.40,  -8.00,   2.00
2,1, 1, 1, 0, 1, 0.00,15.00,Tuesday
8,52996716.6187562
8047,18623970.44278703
2,1, 1, 1, 0, 1,15.00,30.00,Tuesday
8,39942074.07558485
8047,20528121.7611179
2,1, 1, 1, 0, 1,30.00,45.00,Tuesday
8,53005939.43470323
8047,19667668.39053422
2,1, 1, 1, 0, 1,45.00,60.00,Tuesday
8,39931345.74789098
8047,21137404.161181809
2,1, 1, 1, 0, 2, 0.00,15.00,Tuesday
8,53004094.322844039
8047,20363604.62068843
2,1, 1, 1, 0, 2,15.00,30.00,Tuesday
8,39923749.309855829
8047,21998925.608551146
2,1, 1, 1, 0, 2,30.00,45.00,Tuesday
8,52961324.07896417
8047,21121610.731496034
2,1, 1, 1, 0, 2,45.00,60.00,Tuesday
8,39917707.430967878
8047,22713446.247860407
2,1, 1, 1, 0, 3, 0.00,15.00,Tuesday
8,52875616.76243076
8047,22108894.567795837
2,1, 1, 1, 0, 3,15.00,30.00,Tuesday
8,39952072.47662635
8047,23967615.53988953
2,1, 1, 1, 0, 3,30.00,45.00,Tuesday
8,52771272.42592755
8047,23262918.831161817
2,1, 1, 1, 0, 3,45.00,60.00,Tuesday
8,39977309.69921886
8047,25102792.07527762
2,1, 1, 1, 0, 4, 0.00,15.00,Tuesday
8,52675521.43390964
8047,24441314.35713331
2,1, 1, 1, 0, 4,15.00,30.00,Tuesday
8,39973341.12866667
8047,26360114.411513583
2,1, 1, 1, 0, 4,30.00,45.00,Tuesday
8,52541084.816975589
8047,25685601.253034034
2,1, 1, 1, 0, 4,45.00,60.00,Tuesday
8,39969748.8809001
8047,27606428.10582036
2,1, 1, 1, 0, 5, 0.00,15.00,Tuesday
8,50710510.64301464
8047,27697097.68571101
2,1, 1, 1, 0, 5,15.00,30.00,Tuesday
8,40760325.966371837
8047,30325348.894600229
2,1, 1, 1, 0, 5,30.00,45.00,Tuesday
8,52072195.45998366
8047,30441731.451326878
2,1, 1, 1, 0, 5,45.00,60.00,Tuesday
8,39963505.69658615
8047,33042766.37165664
2,1, 1, 1, 0, 6, 0.00,15.00,Tuesday
8,39700055.99452424
8047,32039427.063098447
2,1, 1, 1, 0, 6,15.00,30.00,Tuesday
8,39691645.09959793
8047,32254516.06638914
2,1, 1, 1, 0, 6,30.00,45.00,Tuesday
8,39701158.18875224
8047,32187862.95195531
2,1, 1, 1, 0, 6,45.00,60.00,Tuesday
8,39703374.07114165
8047,32596954.869512194
2,1, 1, 1, 0, 7, 0.00,15.00,Tuesday
8,80158289.71592848
8047,75994356.95140796
2,1, 1, 1, 0, 7,15.00,30.00,Tuesday
8,80265224.05173426
8047,59977661.220772098
2,1, 1, 1, 0, 7,30.00,45.00,Tuesday
8,80392448.08011006
8047,51046856.45004036
2,1, 1, 1, 0, 7,45.00,60.00,Tuesday
8,80440909.38764714
8047,48913331.92870781
2,1, 1, 1, 0, 8, 0.00,15.00,Tuesday
8,114140626.08753652
8047,48136954.067169819
2,1, 1, 1, 0, 8,15.00,30.00,Tuesday
8,83883114.20057686
8047,51966792.75481223
2,1, 1, 1, 0, 8,30.00,45.00,Tuesday
8,117784348.98796343
8047,51336515.343428958
2,1, 1, 1, 0, 8,45.00,60.00,Tuesday
8,84092445.84561537
8047,53391830.12318635
2,1, 1, 1, 0, 9, 0.00,15.00,Tuesday
8,118870981.03846324
8047,49126030.47062596
2,1, 1, 1, 0, 9,15.00,30.00,Tuesday
8,139202071.96905039
8047,46916675.11774848
2,1, 1, 1, 0, 9,30.00,45.00,Tuesday
8,164038026.2272453
8047,41955169.99904719
2,1, 1, 1, 0, 9,45.00,60.00,Tuesday
8,125278131.92101239
8047,40417659.98750895
2,1, 1, 1, 0,10, 0.00,15.00,Tuesday
8,192958141.3820928
8047,36102641.441657427
2,1, 1, 1, 0,10,15.00,30.00,Tuesday
8,155722992.9395996
8047,34575967.27136407
2,1, 1, 1, 0,10,30.00,45.00,Tuesday
8,191585551.97820495
8047,30266853.480812566
2,1, 1, 1, 0,10,45.00,60.00,Tuesday
8,155524384.96542508
8047,29203704.53442064
2,1, 1, 1, 0,11, 0.00,15.00,Tuesday
8,192066986.92557276
8047,25988761.105014758
2,1, 1, 1, 0,11,15.00,30.00,Tuesday
8,155609959.9746074
8047,25664485.95965008
2,1, 1, 1, 0,11,30.00,45.00,Tuesday
8,192331803.18348525
8047,22904363.11847725
2,1, 1, 1, 0,11,45.00,60.00,Tuesday
8,155687575.89295546
8047,22818386.464734906
2,1, 1, 1, 0,12, 0.00,15.00,Tuesday
8,189208060.3403095
8047,20091661.15463723
2,1, 1, 1, 0,12,15.00,30.00,Tuesday
8,153953372.78038524
8047,20105506.553256584
2,1, 1, 1, 0,12,30.00,45.00,Tuesday
8,196436763.88910348
8047,17433925.73602074
2,1, 1, 1, 0,12,45.00,60.00,Tuesday
8,157061754.68913479
8047,17428208.916549598
2,1, 1, 1, 0,13, 0.00,15.00,Tuesday
8,194098739.68679295
8047,15041969.443242906
2,1, 1, 1, 0,13,15.00,30.00,Tuesday
8,156643849.50231797
8047,15237560.78499056
2,1, 1, 1, 0,13,30.00,45.00,Tuesday
8,194337591.43804617
8047,13913698.37909268
2,1, 1, 1, 0,13,45.00,60.00,Tuesday
8,159151043.51043678
8047,13638143.052447798
2,1, 1, 1, 0,14, 0.00,15.00,Tuesday
8,196771319.45458219
8047,13106232.454695173
2,1, 1, 1, 0,14,15.00,30.00,Tuesday
8,166178668.1875255
8047,12813218.594849209
2,1, 1, 1, 0,14,30.00,45.00,Tuesday
8,197088867.6877678
8047,12340614.906745393
2,1, 1, 1, 0,14,45.00,60.00,Tuesday
8,166455866.5264566
8047,12078137.30388808
2,1, 1, 1, 0,15, 0.00,15.00,Tuesday
8,188885969.97284473
8047,11435208.516863279
2,1, 1, 1, 0,15,15.00,30.00,Tuesday
8,164399476.36372776
8047,11310007.268262677
2,1, 1, 1, 0,15,30.00,45.00,Tuesday
8,205376142.99048335
8047,10712950.131286648
2,1, 1, 1, 0,15,45.00,60.00,Tuesday
8,170126941.691842
8047,10593121.718680364
2,1, 1, 1, 0,16, 0.00,15.00,Tuesday
8,197592001.75053538
8047,10390257.822213233
2,1, 1, 1, 0,16,15.00,30.00,Tuesday
8,164625654.7886864
8047,10774652.926355523
2,1, 1, 1, 0,16,30.00,45.00,Tuesday
8,197865509.39974208
8047,10460513.63842138
2,1, 1, 1, 0,16,45.00,60.00,Tuesday
8,164911475.19887967
8047,10840292.294946103
2,1, 1, 1, 0,17, 0.00,15.00,Tuesday
8,197430696.59463773
8047,10906239.381576214
2,1, 1, 1, 0,17,15.00,30.00,Tuesday
8,164228299.35634608
8047,11743598.544985149
2,1, 1, 1, 0,17,30.00,45.00,Tuesday
8,196215987.17675863
8047,11799938.801265045
2,1, 1, 1, 0,17,45.00,60.00,Tuesday
8,164124709.44110755
8047,12633508.203652595
2,1, 1, 1, 0,18, 0.00,15.00,Tuesday
8,196150416.34562967
8047,12147422.157024293
2,1, 1, 1, 0,18,15.00,30.00,Tuesday
8,163454863.1193557
8047,12532457.401241819
2,1, 1, 1, 0,18,30.00,45.00,Tuesday
8,195756824.17727579
8047,12155199.183623713
2,1, 1, 1, 0,18,45.00,60.00,Tuesday
8,163167279.1285155
8047,12541454.494750875
2,1, 1, 1, 0,19, 0.00,15.00,Tuesday
8,133521615.89263509
8047,12225902.711156313
2,1, 1, 1, 0,19,15.00,30.00,Tuesday
8,157471986.72569094
8047,12722771.625304126
2,1, 1, 1, 0,19,30.00,45.00,Tuesday
8,182472893.17598439
8047,12750808.274871922
2,1, 1, 1, 0,19,45.00,60.00,Tuesday
8,151959312.02403934
8047,13670188.13233143
2,1, 1, 1, 0,20, 0.00,15.00,Tuesday
8,180727127.38658426
8047,13689956.702825744
2,1, 1, 1, 0,20,15.00,30.00,Tuesday
8,145127932.26747028
8047,14230677.319200125
2,1, 1, 1, 0,20,30.00,45.00,Tuesday
8,177089755.45993967
8047,14197484.113161248
2,1, 1, 1, 0,20,45.00,60.00,Tuesday
8,143452732.36731804
8047,14964818.200416096
2,1, 1, 1, 0,21, 0.00,15.00,Tuesday
8,163026666.95773489
8047,15888656.709203842
2,1, 1, 1, 0,21,15.00,30.00,Tuesday
8,124529156.00597966
8047,19625342.269754258
2,1, 1, 1, 0,21,30.00,45.00,Tuesday
8,161722589.5700126
8047,20475294.775084564
2,1, 1, 1, 0,21,45.00,60.00,Tuesday
8,124439631.84283145
8047,23629382.68282215
2,1, 1, 1, 0,22, 0.00,15.00,Tuesday
8,94733840.74793855
8047,23647098.054914535
2,1, 1, 1, 0,22,15.00,30.00,Tuesday
8,65867516.40081255
8047,24843273.333160275
2,1, 1, 1, 0,22,30.00,45.00,Tuesday
8,83389857.1312924
8047,24523164.42121275
2,1, 1, 1, 0,22,45.00,60.00,Tuesday
8,65864908.86439569
8047,26263759.211891649
2,1, 1, 1, 0,23, 0.00,15.00,Tuesday
8,56927760.00513258
8047,14209370.276856654
2,1, 1, 1, 0,23,15.00,30.00,Tuesday
8,40225001.083979878
8047,14479393.199836694
2,1, 1, 1, 0,23,30.00,45.00,Tuesday
8,55493184.79385211
8047,13981180.073490477
2,1, 1, 1, 0,23,45.00,60.00,Tuesday
8,40055066.66189937
8047,14551030.218520772
2,1, 1, 1, 0,24, 0.00,15.00,Tuesday
8,51768890.368189048
8047,14343556.453500513
2,1, 1, 1, 0,24,15.00,30.00,Tuesday
8,38405938.79041002
8047,16225366.8619363
2,1, 1, 1, 0,24,30.00,45.00,Tuesday
8,55677918.471626278
8047,16932599.62463404
2,1, 1, 1, 0,24,45.00,60.00,Tuesday
8,39958232.833628
8047,18734296.80781262
2,2, 1, 2, 0, 1, 0.00,15.00,Wednesday
8,53757970.41449207
8047,17555075.690983289
2,2, 1, 2, 0, 1,15.00,30.00,Wednesday
8,39942074.27311308
8047,18293664.51891491
2,2, 1, 2, 0, 1,30.00,45.00,Wednesday
8,54357900.97567668
8047,16286128.41547305
2,2, 1, 2, 0, 1,45.00,60.00,Wednesday
8,39931363.780661758
8047,16639417.528340972
2,2, 1, 2, 0, 2, 0.00,15.00,Wednesday
8,54178672.69800193
8047,17693641.680411329
2,2, 1, 2, 0, 2,15.00,30.00,Wednesday
8,39923769.255782548
8047,21152839.67675955
2,2, 1, 2, 0, 2,30.00,45.00,Wednesday
8,53314779.775991659
8047,22110937.86402891
2,2, 1, 2, 0, 2,45.00,60.00,Wednesday
8,39917769.19292422
8047,25529938.61689815
2,2, 1, 2, 0, 3, 0.00,15.00,Wednesday
8,52937674.83671072
8047,24947046.871433218
2,2, 1, 2, 0, 3,15.00,30.00,Wednesday
8,39952191.130324769
8047,26853356.66581563
2,2, 1, 2, 0, 3,30.00,45.00,Wednesday
8,52855454.30123225
8047,26230861.760936224
2,2, 1, 2, 0, 3,45.00,60.00,Wednesday
8,39977475.042246449
8047,28165441.900510368
2,2, 1, 2, 0, 4, 0.00,15.00,Wednesday
8,52694428.24319211
8047,28317998.206311034
2,2, 1, 2, 0, 4,15.00,30.00,Wednesday
8,39973512.414198268
8047,31050685.194923279
2,2, 1, 2, 0, 4,30.00,45.00,Wednesday
8,52442144.367679048
8047,31223657.074058843
2,2, 1, 2, 0, 4,45.00,60.00,Wednesday
8,39969885.53250769
8047,33932976.713064629
2,2, 1, 2, 0, 5, 0.00,15.00,Wednesday
8,50869229.45379102
8047,31887470.248983455
2,2, 1, 2, 0, 5,15.00,30.00,Wednesday
8,40741184.97024019
8047,32294428.78769711
2,2, 1, 2, 0, 5,30.00,45.00,Wednesday
8,52644328.885654497
8047,30203620.99350235
2,2, 1, 2, 0, 5,45.00,60.00,Wednesday
8,39963365.244787167
8047,30541801.58164329
2,2, 1, 2, 0, 6, 0.00,15.00,Wednesday
8,52760452.670997399
8047,28474444.25796885
2,2, 1, 2, 0, 6,15.00,30.00,Wednesday
8,39960321.7157507
8047,28803227.23124496
2,2, 1, 2, 0, 6,30.00,45.00,Wednesday
8,52915024.62255488
8047,26683172.814745126
2,2, 1, 2, 0, 6,45.00,60.00,Wednesday
8,39957543.90385838
8047,26949225.64105053
2,2, 1, 2, 0, 7, 0.00,15.00,Wednesday
8,100735644.32184784
8047,70414853.49865934
2,2, 1, 2, 0, 7,15.00,30.00,Wednesday
8,82347576.49816886
8047,56251104.64962895
2,2, 1, 2, 0, 7,30.00,45.00,Wednesday
8,101794935.92414731
8047,47249409.09845702
2,2, 1, 2, 0, 7,45.00,60.00,Wednesday
8,82747740.64971125
8047,46492702.76887393
2,2, 1, 2, 0, 8, 0.00,15.00,Wednesday
8,119760357.0880925
8047,44766958.14016958
2,2, 1, 2, 0, 8,15.00,30.00,Wednesday
8,83778848.36782412
8047,48106632.19429282
2,2, 1, 2, 0, 8,30.00,45.00,Wednesday
8,118801231.9842597
8047,46425708.16967179
2,2, 1, 2, 0, 8,45.00,60.00,Wednesday
8,83974456.18683283
8047,47857784.3048004
2,2, 1, 2, 0, 9, 0.00,15.00,Wednesday
8,118860610.75680855
8047,42967090.97412157
2,2, 1, 2, 0, 9,15.00,30.00,Wednesday
8,139394529.189553
8047,40150124.38905699
2,2, 1, 2, 0, 9,30.00,45.00,Wednesday
8,166360925.44777949
8047,34686793.75680436
2,2, 1, 2, 0, 9,45.00,60.00,Wednesday
8,125191673.92260324
8047,32620986.49432738
2,2, 1, 2, 0,10, 0.00,15.00,Wednesday
8,195159531.12370009
8047,28318405.096016218
2,2, 1, 2, 0,10,15.00,30.00,Wednesday
8,155713195.51006104
8047,26775367.333528028
2,2, 1, 2, 0,10,30.00,45.00,Wednesday
8,193695623.03825144
8047,22513001.561573917
2,2, 1, 2, 0,10,45.00,60.00,Wednesday
8,155428944.99716664
8047,21495137.87781793
2,2, 1, 2, 0,11, 0.00,15.00,Wednesday
8,194551852.71518395
8047,17166876.938709525
2,2, 1, 2, 0,11,15.00,30.00,Wednesday
8,155525915.58221907
8047,15781291.289335965
2,2, 1, 2, 0,11,30.00,45.00,Wednesday
8,195528659.49813728
8047,11979964.330488047
2,2, 1, 2, 0,11,45.00,60.00,Wednesday
8,155615366.53574396
8047,11109289.385999915
2,2, 1, 2, 0,12, 0.00,15.00,Wednesday
8,192610034.06806735
8047,9812736.153298634
2,2, 1, 2, 0,12,15.00,30.00,Wednesday
8,153945628.70754726
8047,10219558.29006944
2,2, 1, 2, 0,12,30.00,45.00,Wednesday
8,199022890.69782663
8047,9880040.214566023
2,2, 1, 2, 0,12,45.00,60.00,Wednesday
8,157215194.52198235
8047,10280147.1621455
2,2, 1, 2, 0,13, 0.00,15.00,Wednesday
8,197270635.80810086
8047,9935382.44300304
2,2, 1, 2, 0,13,15.00,30.00,Wednesday
8,156723976.11895178
8047,10314746.669207422
2,2, 1, 2, 0,13,30.00,45.00,Wednesday
8,197236923.31755639
8047,9995277.253227832
2,2, 1, 2, 0,13,45.00,60.00,Wednesday
8,156844322.29708357
8047,10374065.13555087
2,2, 1, 2, 0,14, 0.00,15.00,Wednesday
8,199678756.25966779
8047,10059240.473987485
2,2, 1, 2, 0,14,15.00,30.00,Wednesday
8,162042472.90977667
8047,10439283.833667297
2,2, 1, 2, 0,14,30.00,45.00,Wednesday
8,199824119.4653278
8047,10127596.297231088
2,2, 1, 2, 0,14,45.00,60.00,Wednesday
8,169242581.4861674
8047,10515891.2894872
2,2, 1, 2, 0,15, 0.00,15.00,Wednesday
8,189974574.0040651
8047,10443850.528014316
2,2, 1, 2, 0,15,15.00,30.00,Wednesday
8,165308509.41788376
8047,11119759.685275417
2,2, 1, 2, 0,15,30.00,45.00,Wednesday
8,205316085.6729171
8047,11000439.547185313
2,2, 1, 2, 0,15,45.00,60.00,Wednesday
8,168987852.99593789
8047,11675506.696615652
2,2, 1, 2, 0,16, 0.00,15.00,Wednesday
8,196461058.06239198
8047,11230766.885356773
2,2, 1, 2, 0,16,15.00,30.00,Wednesday
8,163848589.24221949
8047,11526707.146390988
2,2, 1, 2, 0,16,30.00,45.00,Wednesday
8,196952901.66044317
8047,11127887.468936667
2,2, 1, 2, 0,16,45.00,60.00,Wednesday
8,164265589.42230473
8047,11408467.061034183
2,2, 1, 2, 0,17, 0.00,15.00,Wednesday
8,196813665.6134086
8047,11329767.939133589
2,2, 1, 2, 0,17,15.00,30.00,Wednesday
8,163898480.2378803
8047,11983782.003982656
2,2, 1, 2, 0,17,30.00,45.00,Wednesday
8,196031344.5885777
8047,11893877.929151632
2,2, 1, 2, 0,17,45.00,60.00,Wednesday
8,163984659.22325117
8047,12508845.569595304
2,2, 1, 2, 0,18, 0.00,15.00,Wednesday
8,196056211.98190723
8047,12175526.224218445
2,2, 1, 2, 0,18,15.00,30.00,Wednesday
8,163347924.3582038
8047,12635892.017265484
2,2, 1, 2, 0,18,30.00,45.00,Wednesday
8,195462210.2905569
8047,12322177.328800498
2,2, 1, 2, 0,18,45.00,60.00,Wednesday
8,162987411.24757175
8047,12789412.48547658
2,2, 1, 2, 0,19, 0.00,15.00,Wednesday
8,133564870.09079349
8047,12246311.220681126
2,2, 1, 2, 0,19,15.00,30.00,Wednesday
8,157704071.1763967
8047,12484466.085955145
2,2, 1, 2, 0,19,30.00,45.00,Wednesday
8,183194271.8047541
8047,11941944.663299062
2,2, 1, 2, 0,19,45.00,60.00,Wednesday
8,152718305.41067095
8047,12163057.77851787
2,2, 1, 2, 0,20, 0.00,15.00,Wednesday
8,181783819.52405567
8047,11778731.468742772
2,2, 1, 2, 0,20,15.00,30.00,Wednesday
8,145583070.55893747
8047,12174242.939053555
2,2, 1, 2, 0,20,30.00,45.00,Wednesday
8,177998025.52364639
8047,12178326.429425899
2,2, 1, 2, 0,20,45.00,60.00,Wednesday
8,143828713.31914959
8047,12646919.477171835
2,2, 1, 2, 0,21, 0.00,15.00,Wednesday
8,163931396.83052884
8047,13422901.307211554
2,2, 1, 2, 0,21,15.00,30.00,Wednesday
8,129962428.118537
8047,16054067.393659525
2,2, 1, 2, 0,21,30.00,45.00,Wednesday
8,162580420.74331657
8047,17243698.10575269
2,2, 1, 2, 0,21,45.00,60.00,Wednesday
8,124432934.29738878
8047,20555680.954875839
2,2, 1, 2, 0,22, 0.00,15.00,Wednesday
8,91121007.80579978
8047,21655458.33396266
2,2, 1, 2, 0,22,15.00,30.00,Wednesday
8,65867901.25478605
8047,23930167.582931319
2,2, 1, 2, 0,22,30.00,45.00,Wednesday
8,82618822.68987915
8047,24680313.29779733
2,2, 1, 2, 0,22,45.00,60.00,Wednesday
8,65865117.326933499
8047,27489871.774479297
2,2, 1, 2, 0,23, 0.00,15.00,Wednesday
8,56960657.555614057
8047,14216809.923909191
2,2, 1, 2, 0,23,15.00,30.00,Wednesday
8,40241811.234030488
8047,14121758.691935538
2,2, 1, 2, 0,23,30.00,45.00,Wednesday
8,56577228.908243428
8047,13318711.10149168
2,2, 1, 2, 0,23,45.00,60.00,Wednesday
8,40020081.031340997
8047,13556787.802124246
2,2, 1, 2, 0,24, 0.00,15.00,Wednesday
8,52979451.82312702
8047,13134588.730920876
2,2, 1, 2, 0,24,15.00,30.00,Wednesday
8,38407464.825649607
8047,13631080.763288407
2,2, 1, 2, 0,24,30.00,45.00,Wednesday
8,57699491.78798793
8047,13223695.780131132
2,2, 1, 2, 0,24,45.00,60.00,Wednesday
8,39961152.924557227
8047,13800011.13190155
2,3, 1, 3, 0, 1, 0.00,15.00,Thursday
8,55238399.269036177
8047,13831687.796334485
2,3, 1, 3, 0, 1,15.00,30.00,Thursday
8,39945730.60461742
8047,14279039.314657845
2,3, 1, 3, 0, 1,30.00,45.00,Thursday
8,55323755.296400967
8047,13970460.535418682
2,3, 1, 3, 0, 1,45.00,60.00,Thursday
8,39934277.6048428
8047,14555279.078485396
2,3, 1, 3, 0, 2, 0.00,15.00,Thursday
8,55418289.36775968
8047,14015035.362399938
2,3, 1, 3, 0, 2,15.00,30.00,Thursday
8,39925655.25150669
8047,14754862.388778804
2,3, 1, 3, 0, 2,30.00,45.00,Thursday
8,55665565.107709649
8047,13739407.97046057
2,3, 1, 3, 0, 2,45.00,60.00,Thursday
8,39919103.471838679
8047,14673264.205461719
2,3, 1, 3, 0, 3, 0.00,15.00,Thursday
8,56571912.58990815
8047,12500844.72490726
2,3, 1, 3, 0, 3,15.00,30.00,Thursday
8,39913800.64940442
8047,12623876.469019158
2,3, 1, 3, 0, 3,30.00,45.00,Thursday
8,57504326.26196806
8047,11598515.643590065
2,3, 1, 3, 0, 3,45.00,60.00,Thursday
8,39909572.32329942
8047,11476128.569843855
2,3, 1, 3, 0, 4, 0.00,15.00,Thursday
8,58043317.61780598
8047,10954622.0031086
2,3, 1, 3, 0, 4,15.00,30.00,Thursday
8,39906136.725031789
8047,10981552.138569877
2,3, 1, 3, 0, 4,30.00,45.00,Thursday
8,58481542.56390647
8047,10448465.68023327
2,3, 1, 3, 0, 4,45.00,60.00,Thursday
8,39903629.50861972
8047,10478293.513073937
2,3, 1, 3, 0, 5, 0.00,15.00,Thursday
8,56753091.08587985
8047,10332898.840434917
2,3, 1, 3, 0, 5,15.00,30.00,Thursday
8,40677800.257476288
8047,10843189.151099626
2,3, 1, 3, 0, 5,30.00,45.00,Thursday
8,58247396.19551895
8047,10608490.153576835
2,3, 1, 3, 0, 5,45.00,60.00,Thursday
8,39900256.09862073
8047,11123146.077520853
2,3, 1, 3, 0, 6, 0.00,15.00,Thursday
8,57746948.97698751
8047,10813050.480619779
2,3, 1, 3, 0, 6,15.00,30.00,Thursday
8,39897988.21068459
8047,11244170.776791189
2,3, 1, 3, 0, 6,30.00,45.00,Thursday
8,57538163.23050759
8047,10946034.103063873
2,3, 1, 3, 0, 6,45.00,60.00,Thursday
8,39895577.87947181
8047,11374810.096944021
2,3, 1, 3, 0, 7, 0.00,15.00,Thursday
8,104080856.47406249
8047,51423129.0945657
2,3, 1, 3, 0, 7,15.00,30.00,Thursday
8,82384302.1997223
8047,40047313.82652685
2,3, 1, 3, 0, 7,30.00,45.00,Thursday
8,104390093.0502606
8047,32941751.51646655
2,3, 1, 3, 0, 7,45.00,60.00,Thursday
8,82788792.53134889
8047,33534581.909892665
2,3, 1, 3, 0, 8, 0.00,15.00,Thursday
8,122541700.83350545
8047,31535868.904739389
2,3, 1, 3, 0, 8,15.00,30.00,Thursday
8,83802506.22735283
8047,34593037.584682498
2,3, 1, 3, 0, 8,30.00,45.00,Thursday
8,121601796.97726082
8047,32642753.49054481
2,3, 1, 3, 0, 8,45.00,60.00,Thursday
8,83993418.42371048
8047,33822583.16947292
2,3, 1, 3, 0, 9, 0.00,15.00,Thursday
8,118871402.37477936
8047,30955412.95100329
2,3, 1, 3, 0, 9,15.00,30.00,Thursday
8,141163569.83543346
8047,30215145.861751327
2,3, 1, 3, 0, 9,30.00,45.00,Thursday
8,168100738.3319665
8047,26768270.863302374
2,3, 1, 3, 0, 9,45.00,60.00,Thursday
8,125197389.13949013
8047,26792631.59563504
2,3, 1, 3, 0,10, 0.00,15.00,Thursday
8,196246969.50137417
8047,22376040.58767801
2,3, 1, 3, 0,10,15.00,30.00,Thursday
8,155751258.99080993
8047,20598312.688992487
2,3, 1, 3, 0,10,30.00,45.00,Thursday
8,194910941.90485079
8047,16088344.472207752
2,3, 1, 3, 0,10,45.00,60.00,Thursday
8,155463400.3740457
8047,15000626.338546876
2,3, 1, 3, 0,11, 0.00,15.00,Thursday
8,195155143.18177159
8047,13332101.912901659
2,3, 1, 3, 0,11,15.00,30.00,Thursday
8,155497017.96614469
8047,14328490.16871671
2,3, 1, 3, 0,11,30.00,45.00,Thursday
8,194844112.21089859
8047,12793772.028660935
2,3, 1, 3, 0,11,45.00,60.00,Thursday
8,155628745.72026114
8047,14035463.398812106
2,3, 1, 3, 0,12, 0.00,15.00,Thursday
8,191864632.83047704
8047,10688362.812912576
2,3, 1, 3, 0,12,15.00,30.00,Thursday
8,153988134.76541824
8047,10625530.084401615
2,3, 1, 3, 0,12,30.00,45.00,Thursday
8,199148899.4920476
8047,9924707.114777569
2,3, 1, 3, 0,12,45.00,60.00,Thursday
8,157309983.32872848
8047,9813742.482845176
2,3, 1, 3, 0,13, 0.00,15.00,Thursday
8,198388200.6281683
8047,9501866.78707895
2,3, 1, 3, 0,13,15.00,30.00,Thursday
8,156768570.31849043
8047,9779451.317011843
2,3, 1, 3, 0,13,30.00,45.00,Thursday
8,198602528.56441839
8047,9387739.411033489
2,3, 1, 3, 0,13,45.00,60.00,Thursday
8,156900947.81270729
8047,9687670.099918889
2,3, 1, 3, 0,14, 0.00,15.00,Thursday
8,200535384.85712595
8047,9290255.565062816
2,3, 1, 3, 0,14,15.00,30.00,Thursday
8,167335874.08619479
8047,9600290.29029261
2,3, 1, 3, 0,14,30.00,45.00,Thursday
8,200663543.51955728
8047,9209308.060900104
2,3, 1, 3, 0,14,45.00,60.00,Thursday
8,173017606.78954608
8047,9517603.34309404
2,3, 1, 3, 0,15, 0.00,15.00,Thursday
8,191648542.43996845
8047,9202337.740752779
2,3, 1, 3, 0,15,15.00,30.00,Thursday
8,166929207.61538867
8047,9594680.653111387
2,3, 1, 3, 0,15,30.00,45.00,Thursday
8,205996929.14858354
8047,9269297.21649525
2,3, 1, 3, 0,15,45.00,60.00,Thursday
8,174066190.41093809
8047,9667143.548469866
2,3, 1, 3, 0,16, 0.00,15.00,Thursday
8,199343080.42072613
8047,9652987.110213995
2,3, 1, 3, 0,16,15.00,30.00,Thursday
8,165659786.0507996
8047,10409487.556668997
2,3, 1, 3, 0,16,30.00,45.00,Thursday
8,198652446.8860381
8047,10342068.569480516
2,3, 1, 3, 0,16,45.00,60.00,Thursday
8,165491468.90597204
8047,11104874.425442862
2,3, 1, 3, 0,17, 0.00,15.00,Thursday
8,198328801.75189153
8047,10703062.866660208
2,3, 1, 3, 0,17,15.00,30.00,Thursday
8,165160430.6333779
8047,11114966.916302983
2,3, 1, 3, 0,17,30.00,45.00,Thursday
8,198248377.150841
8047,10743169.75333516
2,3, 1, 3, 0,17,45.00,60.00,Thursday
8,165657687.11698706
8047,11144173.189815078
2,3, 1, 3, 0,18, 0.00,15.00,Thursday
8,198468497.03830815
8047,10923167.380171664
2,3, 1, 3, 0,18,15.00,30.00,Thursday
8,164913620.8542821
8047,11500937.199383965
2,3, 1, 3, 0,18,30.00,45.00,Thursday
8,197561847.73964659
8047,11249098.756848488
2,3, 1, 3, 0,18,45.00,60.00,Thursday
8,164321445.37588317
8047,11827401.795553167
2,3, 1, 3, 0,19, 0.00,15.00,Thursday
8,133644598.85487002
8047,11557815.931415042
2,3, 1, 3, 0,19,15.00,30.00,Thursday
8,158985332.91076029
8047,12084417.72434449
2,3, 1, 3, 0,19,30.00,45.00,Thursday
8,184287448.06796963
8047,11751510.16517404
2,3, 1, 3, 0,19,45.00,60.00,Thursday
8,153878712.83199669
8047,12198783.93419985
2,3, 1, 3, 0,20, 0.00,15.00,Thursday
8,182040442.27512563
8047,12069810.278921625
2,3, 1, 3, 0,20,15.00,30.00,Thursday
8,145916348.49612645
8047,12731977.926580236
2,3, 1, 3, 0,20,30.00,45.00,Thursday
8,177549275.28119303
8047,12933497.896394577
2,3, 1, 3, 0,20,45.00,60.00,Thursday
8,143791817.16445423
8047,14367328.905893324
2,3, 1, 3, 0,21, 0.00,15.00,Thursday
8,163431475.17282433
8047,14730797.511575623
2,3, 1, 3, 0,21,15.00,30.00,Thursday
8,129795810.80253305
8047,16194132.929195205
2,3, 1, 3, 0,21,30.00,45.00,Thursday
8,162403863.44557748
8047,16874123.592232545
2,3, 1, 3, 0,21,45.00,60.00,Thursday
8,124454094.19451672
8047,19650158.105927387
2,3, 1, 3, 0,22, 0.00,15.00,Thursday
8,91102454.98559258
8047,20962227.143539873
2,3, 1, 3, 0,22,15.00,30.00,Thursday
8,65871355.63927129
8047,23333918.885267795
2,3, 1, 3, 0,22,30.00,45.00,Thursday
8,82608756.08383289
8047,24196198.83935828
2,3, 1, 3, 0,22,45.00,60.00,Thursday
8,65873197.86235467
8047,27061488.15608268
2,3, 1, 3, 0,23, 0.00,15.00,Thursday
8,56816933.668887827
8047,14584427.473767247
2,3, 1, 3, 0,23,15.00,30.00,Thursday
8,40304094.94875387
8047,14612266.010904009
2,3, 1, 3, 0,23,30.00,45.00,Thursday
8,56192958.207730207
8047,13904345.927503659
2,3, 1, 3, 0,23,45.00,60.00,Thursday
8,40067058.91099455
8047,14229612.084475672
2,3, 1, 3, 0,24, 0.00,15.00,Thursday
8,52697308.393793437
8047,13703802.06863774
2,3, 1, 3, 0,24,15.00,30.00,Thursday
8,38409714.18527355
8047,14116019.62218719
2,3, 1, 3, 0,24,30.00,45.00,Thursday
8,57458637.827205289
8047,13658054.63266705
2,3, 1, 3, 0,24,45.00,60.00,Thursday
8,39963212.82411978
8047,13975272.654675754
2,4, 1, 4, 0, 1, 0.00,15.00,Friday
8,55141629.768108408
8047,14526757.168715556
2,4, 1, 4, 0, 1,15.00,30.00,Friday
8,39947790.92762558
8047,15451093.305393417
2,4, 1, 4, 0, 1,30.00,45.00,Friday
8,54598322.14710391
8047,15598726.102558209
2,4, 1, 4, 0, 1,45.00,60.00,Friday
8,39936181.260748658
8047,17123115.258992956
2,4, 1, 4, 0, 2, 0.00,15.00,Friday
8,54178709.96676081
8047,16953632.044611578
2,4, 1, 4, 0, 2,15.00,30.00,Friday
8,39927195.39124396
8047,19237840.897402213
2,4, 1, 4, 0, 2,30.00,45.00,Friday
8,53945015.2823523
8047,18745720.997754054
2,4, 1, 4, 0, 2,45.00,60.00,Friday
8,39920228.48729503
8047,20636086.660964196
2,4, 1, 4, 0, 3, 0.00,15.00,Friday
8,53905551.67761246
8047,19421494.443360814
2,4, 1, 4, 0, 3,15.00,30.00,Friday
8,39914857.46147546
8047,20654327.70424263
2,4, 1, 4, 0, 3,30.00,45.00,Friday
8,54050266.646660979
8047,19362172.3594722
2,4, 1, 4, 0, 3,45.00,60.00,Friday
8,39910287.9003668
8047,20608146.75083352
2,4, 1, 4, 0, 4, 0.00,15.00,Friday
8,53754222.47746255
8047,21101031.463034579
2,4, 1, 4, 0, 4,15.00,30.00,Friday
8,39975460.21240772
8047,23964406.691569624
2,4, 1, 4, 0, 4,30.00,45.00,Friday
8,53207297.34986694
8047,24421239.109752787
2,4, 1, 4, 0, 4,45.00,60.00,Friday
8,39971946.07657962
8047,27334492.77160315
2,4, 1, 4, 0, 5, 0.00,15.00,Friday
8,51175249.57170042
8047,27434113.125988425
2,4, 1, 4, 0, 5,15.00,30.00,Friday
8,40743575.21626843
8047,30113465.60861409
2,4, 1, 4, 0, 5,30.00,45.00,Friday
8,52544850.74318899
8047,30207892.838018516
2,4, 1, 4, 0, 5,45.00,60.00,Friday
8,39965667.904198709
8047,32896466.208437534
2,4, 1, 4, 0, 6, 0.00,15.00,Friday
8,52360912.307941619
8047,30814711.594606308
2,4, 1, 4, 0, 6,15.00,30.00,Friday
8,39962768.86739098
8047,31172783.467927148
2,4, 1, 4, 0, 6,30.00,45.00,Friday
8,52497860.41785152
8047,29054423.550754176
2,4, 1, 4, 0, 6,45.00,60.00,Friday
8,39960021.45891961
8047,29365087.082227284
2,4, 1, 4, 0, 7, 0.00,15.00,Friday
8,99216721.42496218
8047,73084104.56859198
2,4, 1, 4, 0, 7,15.00,30.00,Friday
8,82366131.63313686
8047,60956963.689436528
2,4, 1, 4, 0, 7,30.00,45.00,Friday
8,99500935.88302486
8047,53337118.59216231
2,4, 1, 4, 0, 7,45.00,60.00,Friday
8,82761746.62066154
8047,53877545.38050282
2,4, 1, 4, 0, 8, 0.00,15.00,Friday
8,117471828.48326582
8047,50808528.8296685
2,4, 1, 4, 0, 8,15.00,30.00,Friday
8,83900563.29032313
8047,52772924.691474158
2,4, 1, 4, 0, 8,30.00,45.00,Friday
8,118027304.06535082
8047,49723858.38499139
2,4, 1, 4, 0, 8,45.00,60.00,Friday
8,83980140.66413029
8047,49749976.59612203
2,4, 1, 4, 0, 9, 0.00,15.00,Friday
8,118863932.20873551
8047,46176978.27876745
2,4, 1, 4, 0, 9,15.00,30.00,Friday
8,137977027.60956667
8047,44624030.314998198
2,4, 1, 4, 0, 9,30.00,45.00,Friday
8,164693793.11557687
8047,40428069.62163532
2,4, 1, 4, 0, 9,45.00,60.00,Friday
8,125193132.11371099
8047,39610876.630528498
2,4, 1, 4, 0,10, 0.00,15.00,Friday
8,193156916.4498303
8047,35679300.91469471
2,4, 1, 4, 0,10,15.00,30.00,Friday
8,155717434.70466877
8047,34529567.24046752
2,4, 1, 4, 0,10,30.00,45.00,Friday
8,191636999.876148
8047,30725296.960659625
2,4, 1, 4, 0,10,45.00,60.00,Friday
8,155429663.19999815
8047,30180956.260155828
2,4, 1, 4, 0,11, 0.00,15.00,Friday
8,191935843.47078959
8047,27609682.526761194
2,4, 1, 4, 0,11,15.00,30.00,Friday
8,155527802.16947434
8047,27828740.879813196
2,4, 1, 4, 0,11,30.00,45.00,Friday
8,192074382.73235569
8047,25523397.793954977
2,4, 1, 4, 0,11,45.00,60.00,Friday
8,155662301.73710866
8047,25942643.275660926
2,4, 1, 4, 0,12, 0.00,15.00,Friday
8,188901146.403139
8047,23170131.8468388
2,4, 1, 4, 0,12,15.00,30.00,Friday
8,153947104.51921613
8047,22814118.265295179
2,4, 1, 4, 0,12,30.00,45.00,Friday
8,196281821.8339583
8047,19862767.581942325
2,4, 1, 4, 0,12,45.00,60.00,Friday
8,156967472.65280367
8047,19587988.713078698
2,4, 1, 4, 0,13, 0.00,15.00,Friday
8,194062100.56618253
8047,17105291.871606448
2,4, 1, 4, 0,13,15.00,30.00,Friday
8,156596455.23537968
8047,17184304.757030786
2,4, 1, 4, 0,13,30.00,45.00,Friday
8,194243616.1585503
8047,14859956.360599665
2,4, 1, 4, 0,13,45.00,60.00,Friday
8,156695242.27064265
8047,15088499.99652511
2,4, 1, 4, 0,14, 0.00,15.00,Friday
8,196579449.4649533
8047,14054895.218966926
2,4, 1, 4, 0,14,15.00,30.00,Friday
8,158986691.15364469
8047,14114177.062834872
2,4, 1, 4, 0,14,30.00,45.00,Friday
8,196712365.50526078
8047,13733891.866914234
2,4, 1, 4, 0,14,45.00,60.00,Friday
8,159056064.64662693
8047,13719776.888971836
2,4, 1, 4, 0,15, 0.00,15.00,Friday
8,188023350.4078625
8047,13703332.592164046
2,4, 1, 4, 0,15,15.00,30.00,Friday
8,159024132.36295564
8047,13982482.989999125
2,4, 1, 4, 0,15,30.00,45.00,Friday
8,202521319.40670605
8047,13975901.372850242
2,4, 1, 4, 0,15,45.00,60.00,Friday
8,166917397.45695184
8047,14284335.592517956
2,4, 1, 4, 0,16, 0.00,15.00,Friday
8,194416371.52054314
8047,13795198.61778856
2,4, 1, 4, 0,16,15.00,30.00,Friday
8,162540195.78473277
8047,13504586.49787356
2,4, 1, 4, 0,16,30.00,45.00,Friday
8,194879825.5647821
8047,13098804.20805499
2,4, 1, 4, 0,16,45.00,60.00,Friday
8,162855992.90526188
8047,12790137.021812916
2,4, 1, 4, 0,17, 0.00,15.00,Friday
8,194988040.0771377
8047,13004584.32220876
2,4, 1, 4, 0,17,15.00,30.00,Friday
8,162717531.04120008
8047,13420632.013112884
2,4, 1, 4, 0,17,30.00,45.00,Friday
8,194655426.07654978
8047,13544228.60254471
2,4, 1, 4, 0,17,45.00,60.00,Friday
8,163061571.70542575
8047,13983600.81347636
2,4, 1, 4, 0,18, 0.00,15.00,Friday
8,195011716.8403861
8047,13847111.383240823
2,4, 1, 4, 0,18,15.00,30.00,Friday
8,162615147.39750023
8047,14144511.136494982
2,4, 1, 4, 0,18,30.00,45.00,Friday
8,194641944.70259834
8047,14048811.60183848
2,4, 1, 4, 0,18,45.00,60.00,Friday
8,162393641.2040641
8047,14342393.083531419
2,4, 1, 4, 0,19, 0.00,15.00,Friday
8,133399621.53401143
8047,14827912.501081735
2,4, 1, 4, 0,19,15.00,30.00,Friday
8,156382063.42896114
8047,16040884.654600231
2,4, 1, 4, 0,19,30.00,45.00,Friday
8,181031079.53304825
8047,16546398.49645119
2,4, 1, 4, 0,19,45.00,60.00,Friday