Program Version,EnergyPlus, Version 8.6.0-198c6a3cff, YMD=2017.03.27 21:27
1,5,Environment Title[],Latitude[deg],Longitude[deg],Time Zone[],Elevation[m]
2,6,Day of Simulation[],Month[],Day of Month[],DST Indicator[1=yes 0=no],Hour[],StartMinute[],EndMinute[],DayType
3,3,Cumulative Day of Simulation[],Month[],Day of Month[],DST Indicator[1=yes 0=no],DayType  ! When Daily Report Variables Requested
4,2,Cumulative Days of Simulation[],Month[]  ! When Monthly Report Variables Requested
5,1,Cumulative Days of Simulation[] ! When Run Period Report Variables Requested
8,1,Electricity:Facility [J] !Hourly
7940,1,Electricity:HVAC [J] !Hourly
2495,1,Refrigeration:Electricity [J] !Hourly
8233,1,Cooling:Electricity [J] !Hourly
8037,1,Heating:Electricity [J] !Hourly
1781,1,InteriorEquipment:Electricity [J] !Hourly
70,1,InteriorLights:Electricity [J] !Hourly
18,1,ExteriorLights:Electricity [J] !Hourly
7950,1,Fans:Electricity [J] !Hourly
8049,1,Gas:Facility [J] !Hourly
8059,1,Gas:HVAC [J] !Hourly
8069,1,Heating:Gas [J] !Hourly
End of Data Dictionary
1,SIMULATION,  37.62,-122.40,  -8.00,   2.00
2,1, 1, 1, 0, 1, 0.00,60.00,Tuesday
8,231904819.80733866
18,3580113.6000000007
70,72118421.99999997
1781,71225798.4
2495,66264342.95019561
7940,18716142.85714286
7950,18716142.85714286
8037,0.0
8049,195754733.3534407
8059,195754733.3534407
8069,195754733.3534407
8233,0.0
2,1, 1, 1, 0, 2, 0.00,60.00,Tuesday
8,232836894.15448839
18,3593980.8000000005
70,72984211.19999999
1781,71146043.28
2495,66396516.0173454
7940,18716142.85714286
7950,18716142.85714286
8037,0.0
8049,196915068.89684595
8059,196915068.89684595
8069,196915068.89684595
8233,0.0
2,1, 1, 1, 0, 3, 0.00,60.00,Tuesday
8,233167065.71011324
18,3592296.0
70,73610485.19999999
1781,71177013.72
2495,66071127.93297025
7940,18716142.85714286
7950,18716142.85714286
8037,0.0
8049,202204759.8689988
8059,202204759.8689988
8069,202204759.8689988
8233,0.0
2,1, 1, 1, 0, 4, 0.00,60.00,Tuesday
8,234125698.8234716
18,3590611.2
70,74879852.39999996
1781,71417849.75999999
2495,65521242.60632862
7940,18716142.85714286
7950,18716142.85714286
8037,0.0
8049,209157065.2886842
8059,209157065.2886842
8069,209157065.2886842
8233,0.0
2,1, 1, 1, 0, 5, 0.00,60.00,Tuesday
8,233840251.67107133
18,3581668.8000000005
70,75312471.60000006
1781,72407216.16
2495,63822752.25392825
7940,18716142.85714286
7950,18716142.85714286
8037,0.0
8049,224216399.80338947
8059,224216399.80338947
8069,224216399.80338947
8233,0.0
2,1, 1, 1, 0, 6, 0.00,60.00,Tuesday
8,216384685.84852035
18,6558883.200000001
70,77202194.39999996
1781,75165766.56
2495,38741698.83137734
7940,18716142.85714286
7950,18716142.85714286
8037,0.0
8049,228512144.6036647
8059,228512144.6036647
8069,228512144.6036647
8233,0.0
2,1, 1, 1, 0, 7, 0.00,60.00,Tuesday
8,353835315.31775388
18,8707564.799999999
70,80247873.59999995
1781,146805460.2
2495,99358273.86061087
7940,18716142.85714286
7950,18716142.85714286
8037,0.0
8049,208316256.97828535
8059,208316256.97828535
8069,208316256.97828535
8233,0.0
2,1, 1, 1, 0, 8, 0.00,60.00,Tuesday
8,443752214.9197241
18,6447168.0
70,83338419.60000007
1781,156021643.44
2495,179228841.02258108
7940,18716142.85714286
7950,18716142.85714286
8037,0.0
8049,214910834.04986827
8059,214910834.04986827
8069,214910834.04986827
8233,0.0
2,1, 1, 1, 0, 9, 0.00,60.00,Tuesday
8,507477814.36013969
18,2450995.2
70,84053905.20000009
1781,234595960.56
2495,167660810.54299677
7940,18716142.85714286
7950,18716142.85714286
8037,0.0
8049,201382217.53718717
8059,201382217.53718717
8069,201382217.53718717
8233,0.0
2,1, 1, 1, 0,10, 0.00,60.00,Tuesday
8,594542463.3485913
18,1502798.4
70,84613298.39999993
1781,299146505.76
2495,190563717.93144856
7940,18716142.85714286
7950,18716142.85714286
8037,0.0
8049,167873883.53527043
8059,167873883.53527043
8069,167873883.53527043
8233,0.0
2,1, 1, 1, 0,11, 0.00,60.00,Tuesday
8,581584566.7538353
18,1622332.8
70,83900671.19999999
1781,287326674.36
2495,190018745.53669257
7940,18716142.85714286
7950,18716142.85714286
8037,0.0
8049,144862995.68992786
8059,144862995.68992786
8069,144862995.68992786
8233,0.0
2,1, 1, 1, 0,12, 0.00,60.00,Tuesday
8,581366349.9596876
18,548294.4
70,83561176.80000003
1781,288242522.28
2495,190574642.1939733
7940,18439714.285714285
7950,18439714.285714285
8037,0.0
8049,127890984.32874382
8059,127890984.32874382
8069,127890984.32874382
8233,0.0
2,1, 1, 1, 0,13, 0.00,60.00,Tuesday
8,593317894.854991
18,224251.19999999999
70,84204269.9999999
1781,295278158.16
2495,195171501.2092769
7940,18439714.285714285
7950,18439714.285714285
8037,0.0
8049,111859540.60002396
8059,111859540.60002396
8069,111859540.60002396
8233,0.0
2,1, 1, 1, 0,14, 0.00,60.00,Tuesday
8,603432037.4728534
18,204033.6
70,83753427.59999994
1781,291791858.04
2495,209243003.94713933
7940,18439714.285714285
7950,18439714.285714285
8037,0.0
8049,99777823.80873719
8059,99777823.80873719
8069,99777823.80873719
8233,0.0
2,1, 1, 1, 0,15, 0.00,60.00,Tuesday
8,616038189.4606594
18,691804.8
70,83806142.40000008
1781,294836313.96000006
2495,218264214.01494507
7940,18439714.285714285
7950,18439714.285714285
8037,0.0
8049,74239730.36720999
8059,74239730.36720999
8069,74239730.36720999
8233,0.0
2,1, 1, 1, 0,16, 0.00,60.00,Tuesday
8,596991070.3198499
18,2771582.4
70,83691799.20000009
1781,290116962.72
2495,201971011.71413545
7940,18439714.285714285
7950,18439714.285714285
8037,0.0
8049,59060676.33430661
8059,59060676.33430661
8069,59060676.33430661
8233,0.0
2,1, 1, 1, 0,17, 0.00,60.00,Tuesday
8,604623593.6685028
18,6409670.4
70,83750234.4
1781,296163242.64
2495,199860731.94278849
7940,18439714.285714285
7950,18439714.285714285
8037,0.0
8049,75150198.37093759
8059,75150198.37093759
8069,75150198.37093759
8233,0.0
2,1, 1, 1, 0,18, 0.00,60.00,Tuesday
8,596657671.3732615
18,8794526.4
70,84192901.20000004
1781,288536138.64
2495,196694390.8475472
7940,18439714.285714285
7950,18439714.285714285
8037,0.0
8049,89368312.57922876
8059,89368312.57922876
8069,89368312.57922876
8233,0.0
2,1, 1, 1, 0,19, 0.00,60.00,Tuesday
8,594548582.0988039
18,8776209.6
70,83783674.79999991
1781,258573770.64
2495,224975212.7730899
7940,18439714.285714285
7950,18439714.285714285
8037,0.0
8049,101976983.00636108
8059,101976983.00636108
8069,101976983.00636108
8233,0.0
2,1, 1, 1, 0,20, 0.00,60.00,Tuesday
8,558754888.4125991
18,8784331.2
70,83023783.19999998
1781,251447354.64000003
2495,197059705.08688504
7940,18439714.285714285
7950,18439714.285714285
8037,0.0
8049,114586887.83331946
8059,114586887.83331946
8069,114586887.83331946
8233,0.0
2,1, 1, 1, 0,21, 0.00,60.00,Tuesday
8,520002405.0114137
18,8625614.4
70,83037751.19999995
1781,219765061.07999999
2495,190065156.9028424
7940,18508821.428571427
7950,18508821.428571427
8037,0.0
8049,134889041.9633022
8059,134889041.9633022
8069,134889041.9633022
8233,0.0
2,1, 1, 1, 0,22, 0.00,60.00,Tuesday
8,330731193.88202479
18,8634686.4
70,83252001.59999992
1781,128395785.96
2495,91870791.35059628
7940,18577928.57142857
7950,18577928.57142857
8037,0.0
8049,144226361.2384098
8059,144226361.2384098
8069,144226361.2384098
8233,0.0
2,1, 1, 1, 0,23, 0.00,60.00,Tuesday
8,249999630.18151213
18,8668296.0
70,79903436.40000008
1781,72104182.92
2495,70607572.00436898
7940,18716142.85714286
7950,18716142.85714286
8037,0.0
8049,163580155.48192204
8059,163580155.48192204
8069,163580155.48192204
8233,0.0
2,1, 1, 1, 0,24, 0.00,60.00,Tuesday
8,235306898.87736399
18,5879347.2
70,74723965.2
1781,71269399.08
2495,64718044.54022099
7940,18716142.85714286
7950,18716142.85714286
8037,0.0
8049,189010463.91340775
8059,189010463.91340775
8069,189010463.91340775
8233,0.0
2,2, 1, 2, 0, 1, 0.00,60.00,Wednesday
8,234086165.87576608
18,3580113.6000000007
70,72118421.99999997
1781,71225798.4
2495,68445689.01862303
7940,18716142.85714286
7950,18716142.85714286
8037,0.0
8049,184778421.27129726
8059,184778421.27129726
8069,184778421.27129726
8233,0.0
2,2, 1, 2, 0, 2, 0.00,60.00,Wednesday
8,234410185.07410366
18,3593980.8000000005
70,72984211.19999999
1781,71146043.28
2495,67969806.93696067
7940,18716142.85714286
7950,18716142.85714286
8037,0.0
8049,197010802.60956515
8059,197010802.60956515
8069,197010802.60956515
8233,0.0
2,2, 1, 2, 0, 3, 0.00,60.00,Wednesday
8,233270853.9757887
18,3592296.0
70,73610485.19999999
1781,71177013.72
2495,66174916.19864573
7940,18716142.85714286
7950,18716142.85714286
8037,0.0
8049,213661414.34774465
8059,213661414.34774465
8069,213661414.34774465
8233,0.0
2,2, 1, 2, 0, 4, 0.00,60.00,Wednesday
8,233987366.4026354
18,3590611.2
70,74879852.39999996
1781,71417849.75999999
2495,65382910.18549237
7940,18716142.85714286
7950,18716142.85714286
8037,0.0
8049,229142693.38832713
8059,229142693.38832713
8069,229142693.38832713
8233,0.0
2,2, 1, 2, 0, 5, 0.00,60.00,Wednesday
8,234558047.49901594
18,3581668.8000000005
70,75312471.60000006
1781,72407216.16
2495,64540548.08187284
7940,18716142.85714286
7950,18716142.85714286
8037,0.0
8049,227066146.28788204
8059,227066146.28788204
8069,227066146.28788204
8233,0.0
2,2, 1, 2, 0, 6, 0.00,60.00,Wednesday
8,243589850.4761136
18,6558883.200000001
70,77202194.39999996
1781,75165766.56
2495,65946863.45897058
7940,18716142.85714286
7950,18716142.85714286
8037,0.0
8049,210502958.78027476
8059,210502958.78027476
8069,210502958.78027476
8233,0.0
2,2, 1, 2, 0, 7, 0.00,60.00,Wednesday
8,400392737.8000365
18,8707564.799999999
70,80247873.59999995
1781,146805460.2
2495,145915696.34289355
7940,18716142.85714286
7950,18716142.85714286
8037,0.0
8049,195054424.31233115
8059,195054424.31233115
8069,195054424.31233115
8233,0.0
2,2, 1, 2, 0, 8, 0.00,60.00,Wednesday
8,449618476.39284029
18,6447168.0
70,83338419.60000007
1781,156021643.44
2495,185095102.49569724
7940,18716142.85714286
7950,18716142.85714286
8037,0.0
8049,198115577.89612598
8059,198115577.89612598
8069,198115577.89612598
8233,0.0
2,2, 1, 2, 0, 9, 0.00,60.00,Wednesday
8,509679418.66515347
18,2450995.2
70,84053905.20000009
1781,234595960.56
2495,169862414.8480105
7940,18716142.85714286
7950,18716142.85714286
8037,0.0
8049,174064175.7581753
8059,174064175.7581753
8069,174064175.7581753
8233,0.0
2,2, 1, 2, 0,10, 0.00,60.00,Wednesday
8,598794135.0464125
18,1502798.4
70,84613298.39999993
1781,299146505.76
2495,194815389.6292697
7940,18716142.85714286
7950,18716142.85714286
8037,0.0
8049,137363243.87931187
8059,137363243.87931187
8069,137363243.87931187
8233,0.0
2,2, 1, 2, 0,11, 0.00,60.00,Wednesday
8,587198604.8926786
18,1622332.8
70,83900671.19999999
1781,287326674.36
2495,195632783.67553587
7940,18716142.85714286
7950,18716142.85714286
8037,0.0
8049,103582017.5549939
8059,103582017.5549939
8069,103582017.5549939
8233,0.0
2,2, 1, 2, 0,12, 0.00,60.00,Wednesday
8,587209633.3207109
18,548294.4
70,83561176.80000003
1781,288242522.28
2495,196417925.5549967
7940,18439714.285714285
7950,18439714.285714285
8037,0.0
8049,83962727.63721432
8059,83962727.63721432
8069,83962727.63721432
8233,0.0
2,2, 1, 2, 0,13, 0.00,60.00,Wednesday
8,599082553.2732604
18,224251.19999999999
70,84204269.9999999
1781,295278158.16
2495,200936159.62754605
7940,18439714.285714285
7950,18439714.285714285
8037,0.0
8049,72977504.67742823
8059,72977504.67742823
8069,72977504.67742823
8233,0.0
2,2, 1, 2, 0,14, 0.00,60.00,Wednesday
8,603657469.7763871
18,204033.6
70,83753427.59999994
1781,291791858.04
2495,209468436.25067304
7940,18439714.285714285
7950,18439714.285714285
8037,0.0
8049,65569220.0798922
8059,65569220.0798922
8069,65569220.0798922
8233,0.0
2,2, 1, 2, 0,15, 0.00,60.00,Wednesday
8,612525309.1613898
18,691804.8
70,83806142.40000008
1781,294836313.96000006
2495,214751333.71567548
7940,18439714.285714285
7950,18439714.285714285
8037,0.0
8049,72046499.76944843
8059,72046499.76944843
8069,72046499.76944843
8233,0.0
2,2, 1, 2, 0,16, 0.00,60.00,Wednesday
8,594669739.3751634
18,2771582.4
70,83691799.20000009
1781,290116962.72
2495,199649680.76944907
7940,18439714.285714285
7950,18439714.285714285
8037,0.0
8049,71336009.07718933
8059,71336009.07718933
8069,71336009.07718933
8233,0.0
2,2, 1, 2, 0,17, 0.00,60.00,Wednesday
8,603680734.8252801
18,6409670.4
70,83750234.4
1781,296163242.64
2495,198917873.09956593
7940,18439714.285714285
7950,18439714.285714285
8037,0.0
8049,79802288.60481039
8059,79802288.60481039
8069,79802288.60481039
8233,0.0
2,2, 1, 2, 0,18, 0.00,60.00,Wednesday
8,596247059.1561098
18,8794526.4
70,84192901.20000004
1781,288536138.64
2495,196283778.6303956
7940,18439714.285714285
7950,18439714.285714285
8037,0.0
8049,93504200.71932473
8059,93504200.71932473
8069,93504200.71932473
8233,0.0
2,2, 1, 2, 0,19, 0.00,60.00,Wednesday
8,594197699.1025124
18,8776209.6
70,83783674.79999991
1781,258573770.64
2495,224624329.77679826
7940,18439714.285714285
7950,18439714.285714285
8037,0.0
8049,97390930.46498096
8059,97390930.46498096
8069,97390930.46498096
8233,0.0
2,2, 1, 2, 0,20, 0.00,60.00,Wednesday
8,560516595.9867818
18,8784331.2
70,83023783.19999998
1781,251447354.64000003
2495,198821412.6610676
7940,18439714.285714285
7950,18439714.285714285
8037,0.0
8049,103239219.8245567
8059,103239219.8245567
8069,103239219.8245567
8233,0.0
2,2, 1, 2, 0,21, 0.00,60.00,Wednesday
8,521679255.6724277
18,8625614.4
70,83037751.19999995
1781,219765061.07999999
2495,191742007.56385643
7940,18508821.428571427
7950,18508821.428571427
8037,0.0
8049,123372376.98771999
8059,123372376.98771999
8069,123372376.98771999
8233,0.0
2,2, 1, 2, 0,22, 0.00,60.00,Wednesday
8,332964337.5857086
18,8634686.4
70,83252001.59999992
1781,128395785.96
2495,94123679.95223926
7940,18558183.673469388
7950,18558183.673469388
8037,0.0
8049,143115582.75672285
8059,143115582.75672285
8069,143115582.75672285
8233,0.0
2,2, 1, 2, 0,23, 0.00,60.00,Wednesday
8,251000744.77587129
18,8668296.0
70,79903436.40000008
1781,72104182.92
2495,71608686.59872818
7940,18716142.85714286
7950,18716142.85714286
8037,0.0
8049,154667563.76699645
8059,154667563.76699645
8069,154667563.76699645
8233,0.0
2,2, 1, 2, 0,24, 0.00,60.00,Wednesday
8,238285451.01365368
18,5879347.2
70,74723965.2
1781,71269399.08
2495,67696596.67651068
7940,18716142.85714286
7950,18716142.85714286
8037,0.0
8049,167483193.53749026
8059,167483193.53749026
8069,167483193.53749026
8233,0.0
2,3, 1, 3, 0, 1, 0.00,60.00,Thursday
8,236284461.44507943
18,3580113.6000000007
70,72118421.99999997
1781,71225798.4
2495,70643984.58793636
7940,18716142.85714286
7950,18716142.85714286
8037,0.0
8049,172054037.39759553
8059,172054037.39759553
8069,172054037.39759553
8233,0.0
2,3, 1, 3, 0, 2, 0.00,60.00,Thursday
8,238160892.25526247
18,3593980.8000000005
70,72984211.19999999
1781,71146043.28
2495,71720514.11811948
7940,18716142.85714286
7950,18716142.85714286
8037,0.0
8049,168577535.79474224
8059,168577535.79474224
8069,168577535.79474224
8233,0.0
2,3, 1, 3, 0, 3, 0.00,60.00,Thursday
8,241717894.41075356
18,3592296.0
70,73610485.19999999
1781,71177013.72
2495,74621956.63361058
7940,18716142.85714286
7950,18716142.85714286
8037,0.0
8049,152209195.97707046
8059,152209195.97707046
8069,152209195.97707046
8233,0.0
2,3, 1, 3, 0, 4, 0.00,60.00,Thursday
8,245316846.46732576
18,3590611.2
70,74879852.39999996
1781,71417849.75999999
2495,76712390.25018274
7940,18716142.85714286
7950,18716142.85714286
8037,0.0
8049,131617905.82013026
8059,131617905.82013026
8069,131617905.82013026
8233,0.0
2,3, 1, 3, 0, 5, 0.00,60.00,Thursday
8,245958386.85732378
18,3581668.8000000005
70,75312471.60000006
1781,72407216.16
2495,75940887.44018068
7940,18716142.85714286
7950,18716142.85714286
8037,0.0
8049,131300617.82788238
8059,131300617.82788238
8069,131300617.82788238
8233,0.0
2,3, 1, 3, 0, 6, 0.00,60.00,Thursday
8,253088297.6228894
18,6558883.200000001
70,77202194.39999996
1781,75165766.56
2495,75445310.60574642
7940,18716142.85714286
7950,18716142.85714286
8037,0.0
8049,138176976.13239289
8059,138176976.13239289
8069,138176976.13239289
8233,0.0
2,3, 1, 3, 0, 7, 0.00,60.00,Thursday
8,406250795.93831959
18,8707564.799999999
70,80247873.59999995
1781,146805460.2
2495,151773754.48117668
7940,18716142.85714286
7950,18716142.85714286
8037,0.0
8049,142398180.5909112
8059,142398180.5909112
8069,142398180.5909112
8233,0.0
2,3, 1, 3, 0, 8, 0.00,60.00,Thursday
8,455359895.57642278
18,6447168.0
70,83338419.60000007
1781,156021643.44
2495,190836521.6792797
7940,18716142.85714286
7950,18716142.85714286
8037,0.0
8049,148218348.03469179
8059,148218348.03469179
8069,148218348.03469179
8233,0.0
2,3, 1, 3, 0, 9, 0.00,60.00,Thursday
8,513308094.9488632
18,2450995.2
70,84053905.20000009
1781,234595960.56
2495,173491091.13172028
7940,18716142.85714286
7950,18716142.85714286
8037,0.0
8049,141428135.61946488
8059,141428135.61946488
8069,141428135.61946488
8233,0.0
2,3, 1, 3, 0,10, 0.00,60.00,Thursday
8,601135216.2941773
18,1502798.4
70,84613298.39999993
1781,299146505.76
2495,197156470.87703444
7940,18716142.85714286
7950,18716142.85714286
8037,0.0
8049,114682599.93506941
8059,114682599.93506941
8069,114682599.93506941
8233,0.0
2,3, 1, 3, 0,11, 0.00,60.00,Thursday
8,586998340.5609224
18,1622332.8
70,83900671.19999999
1781,287326674.36
2495,195610223.42541225
7940,18538438.775510204
7950,18538438.775510204
8037,0.0
8049,103343281.716905
8059,103343281.716905
8069,103343281.716905
8233,0.0
2,3, 1, 3, 0,12, 0.00,60.00,Thursday
8,586497235.6355016
18,548294.4
70,83561176.80000003
1781,288242522.28
2495,195705527.86978729
7940,18439714.285714285
7950,18439714.285714285
8037,0.0
8049,80173485.43747562
8059,80173485.43747562
8069,80173485.43747562
8233,0.0
2,3, 1, 3, 0,13, 0.00,60.00,Thursday
8,601418949.8120036
18,224251.19999999999
70,84204269.9999999
1781,295278158.16
2495,203272556.16628955
7940,18439714.285714285
7950,18439714.285714285
8037,0.0
8049,56197078.77387573
8059,56197078.77387573
8069,56197078.77387573
8233,0.0
2,3, 1, 3, 0,14, 0.00,60.00,Thursday
8,607691761.835945
18,204033.6
70,83753427.59999994
1781,291791858.04
2495,213420641.5069132
7940,18521801.08903207
7950,18439714.285714285
8037,0.0
8049,46265916.88765232
8059,46265916.88765232
8069,46265916.88765232
8233,82086.80331778463
2,3, 1, 3, 0,15, 0.00,60.00,Thursday
8,622834954.019501
18,691804.8
70,83806142.40000008
1781,294836313.96000006
2495,223485524.21938948
7940,20015168.640111437
7950,18439714.285714285
8037,0.0
8049,44047348.33730499
8059,44047348.33730499
8069,44047348.33730499
8233,1575454.3543971503
2,3, 1, 3, 0,16, 0.00,60.00,Thursday
8,599137380.2857356
18,2771582.4
70,83691799.20000009
1781,290116962.72
2495,203874792.9416693
7940,18682243.024066338
7950,18439714.285714285
8037,0.0
8049,51197322.87506172
8059,51197322.87506172
8069,51197322.87506172
8233,242528.73835205247
2,3, 1, 3, 0,17, 0.00,60.00,Thursday
8,606937565.3784746
18,6409670.4
70,83750234.4
1781,296163242.64
2495,202174703.65276028
7940,18439714.285714285
7950,18439714.285714285
8037,0.0
8049,58000820.87715908
8059,58000820.87715908
8069,58000820.87715908
8233,0.0
2,3, 1, 3, 0,18, 0.00,60.00,Thursday
8,600361605.6007545
18,8794526.4
70,84192901.20000004
1781,288536138.64
2495,200398325.07504023
7940,18439714.285714285
7950,18439714.285714285
8037,0.0
8049,67080990.75659923
8059,67080990.75659923
8069,67080990.75659923
8233,0.0
2,3, 1, 3, 0,19, 0.00,60.00,Thursday
8,602855305.4611896
18,8776209.6
70,83783674.79999991
1781,258573770.64
2495,233281936.13547553
7940,18439714.285714285
7950,18439714.285714285
8037,0.0
8049,83828611.4998368
8059,83828611.4998368
8069,83828611.4998368
8233,0.0
2,3, 1, 3, 0,20, 0.00,60.00,Thursday
8,560133522.4656098
18,8784331.2
70,83023783.19999998
1781,251447354.64000003
2495,198438339.13989554
7940,18439714.285714285
7950,18439714.285714285
8037,0.0
8049,107013106.8769707
8059,107013106.8769707
8069,107013106.8769707
8233,0.0
2,3, 1, 3, 0,21, 0.00,60.00,Thursday
8,520765859.4170792
18,8625614.4
70,83037751.19999995
1781,219765061.07999999
2495,190897718.45136509
7940,18439714.285714285
7950,18439714.285714285
8037,0.0
8049,126573290.51115807
8059,126573290.51115807
8069,126573290.51115807
8233,0.0
2,3, 1, 3, 0,22, 0.00,60.00,Thursday
8,332272847.3373816
18,8634686.4
70,83252001.59999992
1781,128395785.96
2495,93550659.09166731
7940,18439714.285714285
7950,18439714.285714285
8037,0.0
8049,143032918.63958577
8059,143032918.63958577
8069,143032918.63958577
8233,0.0
2,3, 1, 3, 0,23, 0.00,60.00,Thursday
8,250439092.84828887
18,8668296.0
70,79903436.40000008
1781,72104182.92
2495,71076652.01808456
7940,18686525.510204086
7950,18686525.510204086
8037,0.0
8049,158352370.3542794
8059,158352370.3542794
8069,158352370.3542794
8233,0.0
2,3, 1, 3, 0,24, 0.00,60.00,Thursday
8,237810593.05185495
18,5879347.2
70,74723965.2
1781,71269399.08
2495,67221738.71471198
7940,18716142.85714286
7950,18716142.85714286
8037,0.0
8049,169609394.1963914
8059,169609394.1963914
8069,169609394.1963914
8233,0.0
2,4, 1, 4, 0, 1, 0.00,60.00,Friday
8,235246120.3788932
18,3580113.6000000007
70,72118421.99999997
1781,71225798.4
2495,69605643.52175014
7940,18716142.85714286
7950,18716142.85714286
8037,0.0
8049,178843272.52568827
8059,178843272.52568827
8069,178843272.52568827
8233,0.0
2,4, 1, 4, 0, 2, 0.00,60.00,Friday
8,235041794.14448304
18,3593980.8000000005
70,72984211.19999999
1781,71146043.28
2495,68601416.00734008
7940,18716142.85714286
7950,18716142.85714286
8037,0.0
8049,187305513.32727374
8059,187305513.32727374
8069,187305513.32727374
8233,0.0
2,4, 1, 4, 0, 3, 0.00,60.00,Friday
8,235603749.42648355
18,3592296.0
70,73610485.19999999
1781,71177013.72
2495,68507811.64934057
7940,18716142.85714286
7950,18716142.85714286
8037,0.0
8049,188541511.47329489
8059,188541511.47329489
8069,188541511.47329489
8233,0.0
2,4, 1, 4, 0, 4, 0.00,60.00,Friday
8,236027002.84893174
18,3590611.2
70,74879852.39999996
1781,71417849.75999999
2495,67422546.6317887
7940,18716142.85714286
7950,18716142.85714286
8037,0.0
8049,202507147.46438379
8059,202507147.46438379
8069,202507147.46438379
8233,0.0
2,4, 1, 4, 0, 5, 0.00,60.00,Friday
8,234764901.54432563
18,3581668.8000000005
70,75312471.60000006
1781,72407216.16
2495,64747402.12718252
7940,18716142.85714286
7950,18716142.85714286
8037,0.0
8049,224172315.753387
8059,224172315.753387
8069,224172315.753387
8233,0.0
2,4, 1, 4, 0, 6, 0.00,60.00,Friday
8,242730547.63767676
18,6558883.200000001
70,77202194.39999996
1781,75165766.56
2495,65087560.62053373
7940,18716142.85714286
7950,18716142.85714286
8037,0.0
8049,221146418.0324677
8059,221146418.0324677
8069,221146418.0324677
8233,0.0
2,4, 1, 4, 0, 7, 0.00,60.00,Friday
8,396547149.2795114
18,8707564.799999999
70,80247873.59999995
1781,146805460.2
2495,142070107.82236845
7940,18716142.85714286
7950,18716142.85714286
8037,0.0
8049,218031779.70901574
8059,218031779.70901574
8069,218031779.70901574
8233,0.0
2,4, 1, 4, 0, 8, 0.00,60.00,Friday
8,446445274.27009949
18,6447168.0
70,83338419.60000007
1781,156021643.44
2495,181921900.37295643
7940,18716142.85714286
7950,18716142.85714286
8037,0.0
8049,214437620.74326278
8059,214437620.74326278
8069,214437620.74326278
8233,0.0
2,4, 1, 4, 0, 9, 0.00,60.00,Friday
8,506620236.40989807
18,2450995.2
70,84053905.20000009
1781,234595960.56
2495,166803232.5927551
7940,18716142.85714286
7950,18716142.85714286
8037,0.0
8049,194470806.6078806
8059,194470806.6078806
8069,194470806.6078806
8233,0.0
2,4, 1, 4, 0,10, 0.00,60.00,Friday
8,594761693.2879253
18,1502798.4
70,84613298.39999993
1781,299146505.76
2495,190782947.87078244
7940,18716142.85714286
7950,18716142.85714286
8037,0.0
8049,169230601.52399213
8059,169230601.52399213
8069,169230601.52399213
8233,0.0
2,4, 1, 4, 0,11, 0.00,60.00,Friday
8,581126229.0429514
18,1622332.8
70,83900671.19999999
1781,287326674.36
2495,189560407.82580856
7940,18716142.85714286
7950,18716142.85714286
8037,0.0
8049,154342178.72969575
8059,154342178.72969575
8069,154342178.72969575
8233,0.0
2,4, 1, 4, 0,12, 0.00,60.00,Friday
8,581061143.7680439
18,548294.4
70,83561176.80000003
1781,288242522.28
2495,190071987.0227378
7940,18637163.265306124
7950,18637163.265306124
8037,0.0
8049,138453945.5212307
8059,138453945.5212307
8069,138453945.5212307
8233,0.0
2,4, 1, 4, 0,13, 0.00,60.00,Friday
8,593320259.5314188
18,224251.19999999999
70,84204269.9999999
1781,295278158.16
2495,195173865.88570474
7940,18439714.285714285
7950,18439714.285714285
8037,0.0
8049,120265597.22600007
8059,120265597.22600007
8069,120265597.22600007
8233,0.0
2,4, 1, 4, 0,14, 0.00,60.00,Friday
8,597372468.7328014
18,204033.6
70,83753427.59999994
1781,291791858.04
2495,203183435.20708723
7940,18439714.285714285
7950,18439714.285714285
8037,0.0
8049,110381407.06106201
8059,110381407.06106201
8069,110381407.06106201
8233,0.0
2,4, 1, 4, 0,15, 0.00,60.00,Friday
8,597535425.5326769
18,691804.8
70,83806142.40000008
1781,294836313.96000006
2495,199761450.08696244
7940,18439714.285714285
7950,18439714.285714285
8037,0.0
8049,108492850.10085353
8059,108492850.10085353
8069,108492850.10085353
8233,0.0
2,4, 1, 4, 0,16, 0.00,60.00,Friday
8,591121079.4234638
18,2771582.4
70,83691799.20000009
1781,290116962.72
2495,196101020.8177494
7940,18439714.285714285
7950,18439714.285714285
8037,0.0
8049,104089305.18373522
8059,104089305.18373522
8069,104089305.18373522
8233,0.0
2,4, 1, 4, 0,17, 0.00,60.00,Friday
8,601002062.3326119
18,6409670.4
70,83750234.4
1781,296163242.64
2495,196239200.6068978
7940,18439714.285714285
7950,18439714.285714285
8037,0.0
8049,106155058.85929385
8059,106155058.85929385
8069,106155058.85929385
8233,0.0
2,4, 1, 4, 0,18, 0.00,60.00,Friday
8,594868112.0035837
18,8794526.4
70,84192901.20000004
1781,288536138.64
2495,194904831.47786949
7940,18439714.285714285
7950,18439714.285714285
8037,0.0
8049,112700501.07031359
8059,112700501.07031359
8069,112700501.07031359
8233,0.0
2,4, 1, 4, 0,19, 0.00,60.00,Friday
8,579384300.6795857
18,8776209.6
70,83783674.79999991
1781,258573770.64
2495,209810931.35387168
7940,18439714.285714285
7950,18439714.285714285
8037,0.0
8049,125280590.71962203
8059,125280590.71962203
8069,125280590.71962203
8233,0.0
2,4, 1, 4, 0,20, 0.00,60.00,Friday
8,556847595.2624085
18,8784331.2
70,83023783.19999998
1781,251447354.64000003
2495,195083304.7938371
7940,18508821.428571427
7950,18508821.428571427
8037,0.0
8049,136377188.4686715
8059,136377188.4686715
8069,136377188.4686715
8233,0.0
2,4, 1, 4, 0,21, 0.00,60.00,Friday
8,519394705.23697087
18,8625614.4
70,83037751.19999995
1781,219765061.07999999
2495,189250135.6998282
7940,18716142.85714286
7950,18716142.85714286
8037,0.0
8049,146917245.48017133
8059,146917245.48017133
8069,146917245.48017133
8233,0.0
2,4, 1, 4, 0,22, 0.00,60.00,Friday
8,328702666.96649137
18,8634686.4
70,83252001.59999992
1781,128395785.96
2495,89704050.1493485
7940,18716142.85714286
7950,18716142.85714286
8037,0.0
8049,153815006.95517159
8059,153815006.95517159
8069,153815006.95517159
8233,0.0
2,4, 1, 4, 0,23, 0.00,60.00,Friday
8,249180806.62929834
18,8668296.0
70,79903436.40000008
1781,72104182.92
2495,69788748.45215523
7940,18716142.85714286
7950,18716142.85714286
8037,0.0
8049,174626089.8494549
8059,174626089.8494549
8069,174626089.8494549
8233,0.0
2,4, 1, 4, 0,24, 0.00,60.00,Friday
8,236112171.72616066
18,5879347.2
70,74723965.2
1781,71269399.08
2495,65523317.38901767
7940,18716142.85714286
7950,18716142.85714286
8037,0.0
8049,184417888.67303283
8059,184417888.67303283
8069,184417888.67303283
8233,0.0
2,5, 1, 5, 0, 1, 0.00,60.00,Saturday
8,220419880.76096154
18,3580113.6000000007
70,72118421.99999997
1781,57379838.4
2495,68625363.90381848
7940,18716142.85714286
7950,18716142.85714286
8037,0.0
8049,188588094.7859618
8059,188588094.7859618
8069,188588094.7859618
8233,0.0
2,5, 1, 5, 0, 2, 0.00,60.00,Saturday
8,220587714.6111882
18,3593980.8000000005
70,72984211.19999999
1781,57300083.28
2495,67993296.47404525
7940,18716142.85714286
7950,18716142.85714286
8037,0.0
8049,193723919.86357487
8059,193723919.86357487
8069,193723919.86357487
8233,0.0
2,5, 1, 5, 0, 3, 0.00,60.00,Saturday
8,219648737.7101103
18,3592296.0
70,73610485.19999999
1781,57331053.72
2495,66398759.932967398
7940,18716142.85714286
7950,18716142.85714286
8037,0.0
8049,214011982.204055
8059,214011982.204055
8069,214011982.204055
8233,0.0
2,5, 1, 5, 0, 4, 0.00,60.00,Saturday
8,219698507.268953
18,3590611.2
70,74879852.39999996
1781,57571889.76
2495,64940011.051810007
7940,18716142.85714286
7950,18716142.85714286
8037,0.0
8049,234296342.52095033
8059,234296342.52095033
8069,234296342.52095033
8233,0.0
2,5, 1, 5, 0, 5, 0.00,60.00,Saturday
8,220141874.18071396
18,3581668.8000000005
70,75312471.60000006
1781,58561256.160000007
2495,63970334.763570878
7940,18716142.85714286
7950,18716142.85714286
8037,0.0
8049,237627724.28880788
8059,237627724.28880788
8069,237627724.28880788
8233,0.0
2,5, 1, 5, 0, 6, 0.00,60.00,Saturday
8,228028222.63466139
18,6558883.200000001
70,77202194.39999996
1781,61319806.56
2495,64231195.61751837
7940,18716142.85714286
7950,18716142.85714286
8037,0.0
8049,239961584.5076517
8059,239961584.5076517
8069,239961584.5076517
8233,0.0
2,5, 1, 5, 0, 7, 0.00,60.00,Saturday
8,367318657.2056458
18,8707564.799999999
70,80247873.59999995
1781,119113540.2
2495,140533535.7485028
7940,18716142.85714286
7950,18716142.85714286
8037,0.0
8049,225049986.3102136
8059,225049986.3102136
8069,225049986.3102136
8233,0.0
2,5, 1, 5, 0, 8, 0.00,60.00,Saturday
8,418820167.2826065
18,6447168.0
70,83338419.60000007
1781,128329723.44
2495,181988713.3854635
7940,18716142.85714286
7950,18716142.85714286
8037,0.0
8049,215929339.5659729
8059,215929339.5659729
8069,215929339.5659729
8233,0.0
2,5, 1, 5, 0, 9, 0.00,60.00,Saturday
8,448838160.08636286
18,2450995.2
70,84053905.20000009
1781,179212120.56
2495,164404996.26921994
7940,18716142.85714286
7950,18716142.85714286
8037,0.0
8049,208457727.43732924
8059,208457727.43732924
8069,208457727.43732924
8233,0.0
2,5, 1, 5, 0,10, 0.00,60.00,Saturday
8,564207829.7359362
18,1502798.4
70,84613298.39999993
1781,271454585.76
2495,187921004.31879328
7940,18716142.85714286
7950,18716142.85714286
8037,0.0
8049,192075894.44524033
8059,192075894.44524033
8069,192075894.44524033
8233,0.0
2,5, 1, 5, 0,11, 0.00,60.00,Saturday
8,579053262.4966409
18,1622332.8
70,83900671.19999999
1781,287326674.36
2495,187487441.2794981
7940,18716142.85714286
7950,18716142.85714286
8037,0.0
8049,168164245.72193779
8059,168164245.72193779