Program Version,EnergyPlus, Version 8.6.0-198c6a3cff, YMD=2017.03.20 16:07
1,5,Environment Title[],Latitude[deg],Longitude[deg],Time Zone[],Elevation[m]
2,6,Day of Simulation[],Month[],Day of Month[],DST Indicator[1=yes 0=no],Hour[],StartMinute[],EndMinute[],DayType
3,3,Cumulative Day of Simulation[],Month[],Day of Month[],DST Indicator[1=yes 0=no],DayType  ! When Daily Report Variables Requested
4,2,Cumulative Days of Simulation[],Month[]  ! When Monthly Report Variables Requested
5,1,Cumulative Days of Simulation[] ! When Run Period Report Variables Requested
6,1,Environment,Site Outdoor Air Drybulb Temperature [C] !TimeStep
8,1,Electricity:Facility [J] !TimeStep
8049,1,Gas:Facility [J] !TimeStep
End of Data Dictionary
1,SIMULATION,  37.62,-122.40,  -8.00,   2.00
2,1, 1, 1, 0, 1, 0.00,15.00,Tuesday
6,6.825
8,71041440.54792659
8049,15962458.849703683
2,1, 1, 1, 0, 1,15.00,30.00,Tuesday
6,6.95
8,57745746.59938623
8049,16227247.484385498
2,1, 1, 1, 0, 1,30.00,45.00,Tuesday
6,7.075
8,71048825.42864758
8049,15813670.318193164
2,1, 1, 1, 0, 1,45.00,60.00,Tuesday
6,7.2
8,57734430.19921144
8049,16067397.250170934
2,1, 1, 1, 0, 2, 0.00,15.00,Tuesday
6,7.2
8,71248170.10267732
8049,15725463.539992068
2,1, 1, 1, 0, 2,15.00,30.00,Tuesday
6,7.2
8,57943839.214776199
8049,16193251.38401105
2,1, 1, 1, 0, 2,30.00,45.00,Tuesday
6,7.2
8,71198236.43944143
8049,16254554.801993002
2,1, 1, 1, 0, 2,45.00,60.00,Tuesday
6,7.2
8,57936530.82958643
8049,16625731.67507333
2,1, 1, 1, 0, 3, 0.00,15.00,Tuesday
6,7.075
8,71245615.64544675
8049,16671391.772298823
2,1, 1, 1, 0, 3,15.00,30.00,Tuesday
6,6.95
8,58084957.705249208
8049,17540785.95938217
2,1, 1, 1, 0, 3,30.00,45.00,Tuesday
6,6.825
8,70993034.39355394
8049,17459897.123646458
2,1, 1, 1, 0, 3,45.00,60.00,Tuesday
6,6.7
8,58079921.55070809
8049,18920122.728178219
2,1, 1, 1, 0, 4, 0.00,15.00,Tuesday
6,6.550000000000001
8,71139752.02614239
8049,18323757.816529138
2,1, 1, 1, 0, 4,15.00,30.00,Tuesday
6,6.4
8,58390574.250435139
8049,20262262.186101386
2,1, 1, 1, 0, 4,30.00,45.00,Tuesday
6,6.249999999999999
8,71002068.47772748
8049,19663703.813829744
2,1, 1, 1, 0, 4,45.00,60.00,Tuesday
6,6.1
8,58387202.95077743
8049,21464185.39348996
2,1, 1, 1, 0, 5, 0.00,15.00,Tuesday
6,5.674999999999999
8,69256177.55886337
8049,21538063.679947817
2,1, 1, 1, 0, 5,15.00,30.00,Tuesday
6,5.25
8,59298120.51432835
8049,24068765.224787743
2,1, 1, 1, 0, 5,30.00,45.00,Tuesday
6,4.825
8,70640497.50463155
8049,24161941.326483948
2,1, 1, 1, 0, 5,45.00,60.00,Tuesday
6,4.4
8,58488466.96381415
8049,26688071.9492497
2,1, 1, 1, 0, 6, 0.00,15.00,Tuesday
6,4.4
8,60068241.125371079
8049,25413300.10023021
2,1, 1, 1, 0, 6,15.00,30.00,Tuesday
6,4.4
8,60060487.43085302
8049,25494801.38960849
2,1, 1, 1, 0, 6,30.00,45.00,Tuesday
6,4.4
8,60070392.073347199
8049,25232675.43640405
2,1, 1, 1, 0, 6,45.00,60.00,Tuesday
6,4.4
8,60073583.44723023
8049,25082580.167505877
2,1, 1, 1, 0, 7, 0.00,15.00,Tuesday
6,4.825
8,97900433.32224462
8049,68583350.3250487
2,1, 1, 1, 0, 7,15.00,30.00,Tuesday
6,5.25
8,98005646.34107748
8049,50525861.56688395
2,1, 1, 1, 0, 7,30.00,45.00,Tuesday
6,5.674999999999999
8,98137327.35033122
8049,42869293.22504358
2,1, 1, 1, 0, 7,45.00,60.00,Tuesday
6,6.1
8,98185738.92609446
8049,40722090.16604214
2,1, 1, 1, 0, 8, 0.00,15.00,Tuesday
6,5.824999999999999
8,133394198.15586251
8049,40118411.292547877
2,1, 1, 1, 0, 8,15.00,30.00,Tuesday
6,5.55
8,102465001.21614859
8049,44053147.31337057
2,1, 1, 1, 0, 8,30.00,45.00,Tuesday
6,5.275
8,136504463.93750865
8049,43298632.55421169
2,1, 1, 1, 0, 8,45.00,60.00,Tuesday
6,5.0
8,102650850.30038378
8049,45478654.237330649
2,1, 1, 1, 0, 9, 0.00,15.00,Tuesday
6,5.7
8,130363420.51484715
8049,42307281.34780674
2,1, 1, 1, 0, 9,15.00,30.00,Tuesday
6,6.4
8,150848185.03381998
8049,40447452.46827562
2,1, 1, 1, 0, 9,30.00,45.00,Tuesday
6,7.1
8,175711963.73207314
8049,35712550.57202822
2,1, 1, 1, 0, 9,45.00,60.00,Tuesday
6,7.8
8,136806101.32662998
8049,34498111.081776048
2,1, 1, 1, 0,10, 0.00,15.00,Tuesday
6,8.075
8,195546928.1524784
8049,31667877.169732948
2,1, 1, 1, 0,10,15.00,30.00,Tuesday
6,8.35
8,158237614.45712743
8049,30620973.570545366
2,1, 1, 1, 0,10,30.00,45.00,Tuesday
6,8.625
8,194192259.8089352
8049,26786981.720492059
2,1, 1, 1, 0,10,45.00,60.00,Tuesday
6,8.9
8,158082761.42214168
8049,26418775.69653462
2,1, 1, 1, 0,11, 0.00,15.00,Tuesday
6,9.025
8,194345352.94060407
8049,23792835.022867916
2,1, 1, 1, 0,11,15.00,30.00,Tuesday
6,9.15
8,157858179.1740371
8049,23865033.73501087
2,1, 1, 1, 0,11,30.00,45.00,Tuesday
6,9.275
8,194657709.3884065
8049,21250248.550636613
2,1, 1, 1, 0,11,45.00,60.00,Tuesday
6,9.4
8,157981552.265284
8049,21434549.117797983
2,1, 1, 1, 0,12, 0.00,15.00,Tuesday
6,9.55
8,191359675.67425064
8049,18958617.720044119
2,1, 1, 1, 0,12,15.00,30.00,Tuesday
6,9.7
8,156074887.42476074
8049,19037565.18051166
2,1, 1, 1, 0,12,30.00,45.00,Tuesday
6,9.85
8,198608729.5847918
8049,16527676.54011714
2,1, 1, 1, 0,12,45.00,60.00,Tuesday
6,10.0
8,159309793.75008459
8049,16768045.18649806
2,1, 1, 1, 0,13, 0.00,15.00,Tuesday
6,10.15
8,195134497.52148847
8049,15231197.950636765
2,1, 1, 1, 0,13,15.00,30.00,Tuesday
6,10.3
8,157572332.8694307
8049,14894805.710608866
2,1, 1, 1, 0,13,30.00,45.00,Tuesday
6,10.45
8,195374464.84710969
8049,14304944.648918335
2,1, 1, 1, 0,13,45.00,60.00,Tuesday
6,10.6
8,161489610.52211378
8049,13956126.063609474
2,1, 1, 1, 0,14, 0.00,15.00,Tuesday
6,10.725
8,197676494.87450234
8049,13632589.92726413
2,1, 1, 1, 0,14,15.00,30.00,Tuesday
6,10.85
8,167094251.23576326
8049,13879365.537829539
2,1, 1, 1, 0,14,30.00,45.00,Tuesday
6,10.975
8,197961352.12751118
8049,13554055.432378918
2,1, 1, 1, 0,14,45.00,60.00,Tuesday
6,11.1
8,167306147.4789575
8049,13846614.409220107
2,1, 1, 1, 0,15, 0.00,15.00,Tuesday
6,11.799999999999999
8,191125843.81899793
8049,13148182.517466993
2,1, 1, 1, 0,15,15.00,30.00,Tuesday
6,12.5
8,166677151.1769035
8049,13014141.41665074
2,1, 1, 1, 0,15,30.00,45.00,Tuesday
6,13.200000000000001
8,207618491.80235634
8049,12414929.071681459
2,1, 1, 1, 0,15,45.00,60.00,Tuesday
6,13.9
8,172629958.60201548
8049,12290448.599280078
2,1, 1, 1, 0,16, 0.00,15.00,Tuesday
6,13.9
8,200000025.0620708
8049,12076803.249434164
2,1, 1, 1, 0,16,15.00,30.00,Tuesday
6,13.9
8,167035574.16132815
8049,12450804.982002745
2,1, 1, 1, 0,16,30.00,45.00,Tuesday
6,13.9
8,200274492.37496675
8049,12131786.080500192
2,1, 1, 1, 0,16,45.00,60.00,Tuesday
6,13.9
8,167341948.83184288
8049,12516649.506490637
2,1, 1, 1, 0,17, 0.00,15.00,Tuesday
6,13.200000000000001
8,200145188.07245467
8049,12573582.998777852
2,1, 1, 1, 0,17,15.00,30.00,Tuesday
6,12.5
8,167018236.44407518
8049,13421301.289379156
2,1, 1, 1, 0,17,30.00,45.00,Tuesday
6,11.799999999999999
8,198909963.548688
8049,13467592.961549256
2,1, 1, 1, 0,17,45.00,60.00,Tuesday
6,11.1
8,166325061.78280706
8049,14311151.99505479
2,1, 1, 1, 0,18, 0.00,15.00,Tuesday
6,11.1
8,198793123.58716933
8049,13813057.005853937
2,1, 1, 1, 0,18,15.00,30.00,Tuesday
6,11.1
8,166118733.52020429
8049,14202036.560431607
2,1, 1, 1, 0,18,30.00,45.00,Tuesday
6,11.1
8,198403642.11281155
8049,13817000.792090206
2,1, 1, 1, 0,18,45.00,60.00,Tuesday
6,11.1
8,165832811.06499095
8049,14201626.649797176
2,1, 1, 1, 0,19, 0.00,15.00,Tuesday
6,10.975
8,142954550.50943799
8049,13873921.862668533
2,1, 1, 1, 0,19,15.00,30.00,Tuesday
6,10.85
8,166949443.5761831
8049,14337916.685688034
2,1, 1, 1, 0,19,30.00,45.00,Tuesday
6,10.725
8,191948751.90770499
8049,14037233.24157221
2,1, 1, 1, 0,19,45.00,60.00,Tuesday
6,10.6
8,161461517.55537377
8049,14450353.223245342
2,1, 1, 1, 0,20, 0.00,15.00,Tuesday
6,10.6
8,190017021.41136856
8049,14039926.90028964
2,1, 1, 1, 0,20,15.00,30.00,Tuesday
6,10.6
8,154489454.66909129
8049,14439452.605621269
2,1, 1, 1, 0,20,30.00,45.00,Tuesday
6,10.6
8,186354997.3199403
8049,14031193.928139095
2,1, 1, 1, 0,20,45.00,60.00,Tuesday
6,10.6
8,152755982.84769813
8049,14522241.947855222
2,1, 1, 1, 0,21, 0.00,15.00,Tuesday
6,10.174999999999999
8,174690489.89449499
8049,15398156.248282472
2,1, 1, 1, 0,21,15.00,30.00,Tuesday
6,9.75
8,141203703.92198897
8049,16767161.655895997
2,1, 1, 1, 0,21,30.00,45.00,Tuesday
6,9.325000000000001
8,173273791.46237094
8049,17788599.57748457
2,1, 1, 1, 0,21,45.00,60.00,Tuesday
6,8.9
8,135938317.59289063
8049,21166776.29853946
2,1, 1, 1, 0,22, 0.00,15.00,Tuesday
6,9.025
8,108697386.11636436
8049,20151049.67080591
2,1, 1, 1, 0,22,15.00,30.00,Tuesday
6,9.15
8,84316463.95201795
8049,21086672.180235369
2,1, 1, 1, 0,22,30.00,45.00,Tuesday
6,9.275
8,101200945.33976677
8049,20648140.658684244
2,1, 1, 1, 0,22,45.00,60.00,Tuesday
6,9.4
8,84316637.41118989
8049,22170795.332809539
2,1, 1, 1, 0,23, 0.00,15.00,Tuesday
6,9.0
8,78040539.71509612
8049,15256188.79448892
2,1, 1, 1, 0,23,15.00,30.00,Tuesday
6,8.6
8,61229078.24915017
8049,15862537.983157568
2,1, 1, 1, 0,23,30.00,45.00,Tuesday
6,8.2
8,76612985.71422456
8049,15509146.991016224
2,1, 1, 1, 0,23,45.00,60.00,Tuesday
6,7.8
8,61102733.675533998
8049,16116144.255260807
2,1, 1, 1, 0,24, 0.00,15.00,Tuesday
6,7.5249999999999999
8,71681542.20859008
8049,15756276.000887424
2,1, 1, 1, 0,24,15.00,30.00,Tuesday
6,7.25
8,58207437.63729744
8049,16299267.014270574
2,1, 1, 1, 0,24,30.00,45.00,Tuesday
6,6.9750000000000009
8,75569483.03085144
8049,16023986.342470447
2,1, 1, 1, 0,24,45.00,60.00,Tuesday
6,6.7
8,59762770.52239647
8049,16544951.850965927
2,2, 1, 2, 0, 1, 0.00,15.00,Wednesday
6,7.25
8,71952331.08804196
8049,15789996.483738674
2,2, 1, 2, 0, 1,15.00,30.00,Wednesday
6,7.800000000000001
8,57745746.91335013
8049,15748507.819480893
2,2, 1, 2, 0, 1,30.00,45.00,Wednesday
6,8.350000000000002
8,72458366.0962186
8049,15174906.458151997
2,2, 1, 2, 0, 1,45.00,60.00,Wednesday
6,8.9
8,57734886.56619861
8049,15115781.488013
2,2, 1, 2, 0, 2, 0.00,15.00,Wednesday
6,8.200000000000001
8,72444197.13514288
8049,15229992.350251174
2,2, 1, 2, 0, 2,15.00,30.00,Wednesday
6,7.5
8,57945469.67332898
8049,16052086.750212102
2,2, 1, 2, 0, 2,30.00,45.00,Wednesday
6,6.799999999999999
8,71546733.45239292
8049,16469751.285567906
2,2, 1, 2, 0, 2,45.00,60.00,Wednesday
6,6.1
8,57938522.57970059
8049,18341175.650444937
2,2, 1, 2, 0, 3, 0.00,15.00,Wednesday
6,5.975
8,71242439.46796999
8049,18550088.315129915
2,2, 1, 2, 0, 3,15.00,30.00,Wednesday
6,5.85
8,58085878.69033597
8049,20223202.116200299
2,2, 1, 2, 0, 3,30.00,45.00,Wednesday
6,5.725
8,71047961.12781602
8049,20012776.849936017
2,2, 1, 2, 0, 3,45.00,60.00,Wednesday
6,5.6
8,58080223.991523798
8049,22010687.36776946
2,2, 1, 2, 0, 4, 0.00,15.00,Wednesday
6,5.174999999999999
8,71148564.50207949
8049,22164458.891274457
2,2, 1, 2, 0, 4,15.00,30.00,Wednesday
6,4.75
8,58390731.56750577
8049,24807702.42198096
2,2, 1, 2, 0, 4,30.00,45.00,Wednesday
6,4.324999999999999
8,70894458.48110104
8049,25013497.54887174
2,2, 1, 2, 0, 4,45.00,60.00,Wednesday
6,3.9
8,58387404.66955485
8049,27615087.091634215
2,2, 1, 2, 0, 5, 0.00,15.00,Wednesday
6,4.324999999999999
8,69411731.1494499
8049,25506547.988305734
2,2, 1, 2, 0, 5,15.00,30.00,Wednesday
6,4.75
8,59276561.3711016
8049,25860558.08544548
2,2, 1, 2, 0, 5,30.00,45.00,Wednesday
6,5.174999999999999
8,71217792.88858877
8049,23697975.52408254
2,2, 1, 2, 0, 5,45.00,60.00,Wednesday
6,5.6
8,58488516.17317872
8049,24029515.255471566
2,2, 1, 2, 0, 6, 0.00,15.00,Wednesday
6,5.999999999999999
8,73311406.50896046
8049,21714050.03662551
2,2, 1, 2, 0, 6,15.00,30.00,Wednesday
6,6.4
8,60304513.94060003
8049,22033938.46939619
2,2, 1, 2, 0, 6,30.00,45.00,Wednesday
6,6.800000000000001
8,73331742.98045787
8049,19835842.250919049
2,2, 1, 2, 0, 6,45.00,60.00,Wednesday
6,7.2
8,60302453.05588944
8049,20107546.507736643
2,2, 1, 2, 0, 7, 0.00,15.00,Wednesday
6,7.3500000000000009
8,118569907.0856814
8049,62884997.20258717
2,2, 1, 2, 0, 7,15.00,30.00,Wednesday
6,7.5
8,100120562.44737244
8049,46706807.398233208
2,2, 1, 2, 0, 7,30.00,45.00,Wednesday
6,7.6499999999999999
8,119606068.14643196
8049,39000829.31288395
2,2, 1, 2, 0, 7,45.00,60.00,Wednesday
6,7.8
8,100505778.98617654
8049,38457383.7939319
2,2, 1, 2, 0, 8, 0.00,15.00,Wednesday
6,7.6499999999999999
8,138461704.1380683
8049,36656419.10639105
2,2, 1, 2, 0, 8,15.00,30.00,Wednesday
6,7.5
8,102356877.08989118
8049,40117633.22000982
2,2, 1, 2, 0, 8,30.00,45.00,Wednesday
6,7.3500000000000009
8,137503273.95875026
8049,38410551.79520173
2,2, 1, 2, 0, 8,45.00,60.00,Wednesday
6,7.2
8,102532401.39264395
8049,39990870.5392758
2,2, 1, 2, 0, 9, 0.00,15.00,Wednesday
6,8.05
8,130354076.38206403
8049,36236935.63945959
2,2, 1, 2, 0, 9,15.00,30.00,Wednesday
6,8.9
8,151014076.83787553
8049,33775397.721337128
2,2, 1, 2, 0, 9,30.00,45.00,Wednesday
6,9.75
8,178057679.19568096
8049,28567669.5700918
2,2, 1, 2, 0, 9,45.00,60.00,Wednesday
6,10.6
8,136701901.05323313
8049,26831451.585908947
2,2, 1, 2, 0,10, 0.00,15.00,Wednesday
6,10.875
8,197767347.06557838
8049,23990765.20353874
2,2, 1, 2, 0,10,15.00,30.00,Wednesday
6,11.149999999999999
8,158228027.15434499
8049,22929889.059283474
2,2, 1, 2, 0,10,30.00,45.00,Wednesday
6,11.424999999999999
8,196310150.89163224
8049,19139535.65325725
2,2, 1, 2, 0,10,45.00,60.00,Wednesday
6,11.7
8,157976885.59696368
8049,18746839.237750416
2,2, 1, 2, 0,11, 0.00,15.00,Wednesday
6,12.249999999999999
8,196846337.51106895
8049,15061239.3559074
2,2, 1, 2, 0,11,15.00,30.00,Wednesday
6,12.8
8,157772118.90456838
8049,14255884.223325534
2,2, 1, 2, 0,11,30.00,45.00,Wednesday
6,13.350000000000002
8,197890982.31154079
8049,11971018.738986388
2,2, 1, 2, 0,11,45.00,60.00,Wednesday
6,13.9
8,157960369.68643523
8049,11928717.539742466
2,2, 1, 2, 0,12, 0.00,15.00,Wednesday
6,13.9
8,194842780.62110213
8049,11595279.153088112
2,2, 1, 2, 0,12,15.00,30.00,Wednesday
6,13.9
8,156066142.25476844
8049,11967758.305149289
2,2, 1, 2, 0,12,30.00,45.00,Wednesday
6,13.9
8,201213967.52837549
8049,11632366.891879673
2,2, 1, 2, 0,12,45.00,60.00,Wednesday
6,13.9
8,159526145.08554144
8049,12009096.142793099
2,2, 1, 2, 0,13, 0.00,15.00,Wednesday
6,13.9
8,198291093.13972835
8049,11676619.211479892
2,2, 1, 2, 0,13,15.00,30.00,Wednesday
6,13.9
8,157672083.5781416
8049,12053000.388380792
2,2, 1, 2, 0,13,30.00,45.00,Wednesday
6,13.9
8,198276103.98475803
8049,11729248.164050639
2,2, 1, 2, 0,13,45.00,60.00,Wednesday
6,13.9
8,157775777.54015986
8049,12113283.008887243
2,2, 1, 2, 0,14, 0.00,15.00,Wednesday
6,13.9
8,200625156.91139768
8049,11787988.002964596
2,2, 1, 2, 0,14,15.00,30.00,Wednesday
6,13.9
8,164409774.63140524
8049,12178535.52874891
2,2, 1, 2, 0,14,30.00,45.00,Wednesday
6,13.9
8,200723498.24108217
8049,11851201.882549398
2,2, 1, 2, 0,14,45.00,60.00,Wednesday
6,13.9
8,170238213.2373163
8049,12245493.688326063
2,2, 1, 2, 0,15, 0.00,15.00,Wednesday
6,13.475000000000002
8,192173212.9132734
8049,12162589.281808433
2,2, 1, 2, 0,15,15.00,30.00,Wednesday
6,13.05
8,167623470.6404267
8049,12837371.892972434
2,2, 1, 2, 0,15,30.00,45.00,Wednesday
6,12.624999999999999
8,207574930.48795326
8049,12713829.938502077
2,2, 1, 2, 0,15,45.00,60.00,Wednesday
6,12.2
8,171427733.81400384
8049,13395965.124079038
2,2, 1, 2, 0,16, 0.00,15.00,Wednesday
6,12.349999999999998
8,198883430.02801217
8049,12930985.939053255
2,2, 1, 2, 0,16,15.00,30.00,Wednesday
6,12.5
8,166357363.3262954
8049,13229973.955315339
2,2, 1, 2, 0,16,30.00,45.00,Wednesday
6,12.650000000000003
8,199357465.6323805
8049,12812147.164758565
2,2, 1, 2, 0,16,45.00,60.00,Wednesday
6,12.8
8,166690693.04802097
8049,13092872.422613554
2,2, 1, 2, 0,17, 0.00,15.00,Wednesday
6,12.375000000000002
8,199530230.54053775
8049,13009179.576047607
2,2, 1, 2, 0,17,15.00,30.00,Wednesday
6,11.95
8,166623560.04366929
8049,13668423.338852197
2,2, 1, 2, 0,17,30.00,45.00,Wednesday
6,11.524999999999999
8,198747168.35348616
8049,13571603.795091577
2,2, 1, 2, 0,17,45.00,60.00,Wednesday
6,11.1
8,166246764.42977909
8049,14182986.27547308
2,2, 1, 2, 0,18, 0.00,15.00,Wednesday
6,10.975
8,198725742.12042866
8049,13848319.40682534
2,2, 1, 2, 0,18,15.00,30.00,Wednesday
6,10.85
8,166046751.82354234
8049,14312155.873693547
2,2, 1, 2, 0,18,30.00,45.00,Wednesday
6,10.725
8,198139687.33252163
8049,13991449.19383785
2,2, 1, 2, 0,18,45.00,60.00,Wednesday
6,10.6
8,165661380.01794867
8049,14459438.642690186
2,2, 1, 2, 0,19, 0.00,15.00,Wednesday
6,10.875
8,143012362.02880774
8049,13902082.07780858
2,2, 1, 2, 0,19,15.00,30.00,Wednesday
6,11.149999999999999
8,167115623.30108873
8049,14117650.689074362
2,2, 1, 2, 0,19,30.00,45.00,Wednesday
6,11.424999999999999
8,192694061.03727178
8049,13582689.18906479
2,2, 1, 2, 0,19,45.00,60.00,Wednesday
6,11.7
8,162271401.69012098
8049,13786890.491971294
2,2, 1, 2, 0,20, 0.00,15.00,Wednesday
6,11.7
8,191063796.1705377
8049,13415197.953585266
2,2, 1, 2, 0,20,15.00,30.00,Wednesday
6,11.7
8,154923480.03220076
8049,13803773.723003539
2,2, 1, 2, 0,20,30.00,45.00,Wednesday
6,11.7
8,187281254.31645728
8049,13403500.283584558
2,2, 1, 2, 0,20,45.00,60.00,Wednesday
6,11.7
8,153167861.18671549
8049,13786635.935928576
2,2, 1, 2, 0,21, 0.00,15.00,Wednesday
6,11.274999999999999
8,175517163.3284535
8049,13686159.484942789
2,2, 1, 2, 0,21,15.00,30.00,Wednesday
6,10.85
8,141566660.1441833
8049,14377073.26198928
2,2, 1, 2, 0,21,30.00,45.00,Wednesday
6,10.425
8,174218138.00053875
8049,15350126.21195065
2,2, 1, 2, 0,21,45.00,60.00,Wednesday
6,10.0
8,135943417.15503375
8049,17312321.319917185
2,2, 1, 2, 0,22, 0.00,15.00,Wednesday
6,9.725
8,109710320.67619393
8049,17743555.97714275
2,2, 1, 2, 0,22,15.00,30.00,Wednesday
6,9.45
8,84317741.6756612
8049,19972270.01336421
2,2, 1, 2, 0,22,30.00,45.00,Wednesday
6,9.175
8,101083443.16338469
8049,20664580.568749578
2,2, 1, 2, 0,22,45.00,60.00,Wednesday
6,8.9
8,84332752.20640154
8049,23283428.226712776
2,2, 1, 2, 0,23, 0.00,15.00,Wednesday
6,9.025
8,78086231.11080536
8049,15239830.944558735
2,2, 1, 2, 0,23,15.00,30.00,Wednesday
6,9.15
8,61264363.25524239
8049,15515031.055480736
2,2, 1, 2, 0,23,30.00,45.00,Wednesday
6,9.275
8,77699095.40547562
8049,14848155.736600206
2,2, 1, 2, 0,23,45.00,60.00,Wednesday
6,9.4
8,61103557.32299496
8049,15137802.820904524
2,2, 1, 2, 0,24, 0.00,15.00,Wednesday
6,9.275
8,72893348.579499
8049,14804485.895431599
2,2, 1, 2, 0,24,15.00,30.00,Wednesday
6,9.15
8,58209156.90103833
8049,15246787.488586313
2,2, 1, 2, 0,24,30.00,45.00,Wednesday
6,9.025
8,77692339.1734003
8049,14911994.266343454
2,2, 1, 2, 0,24,45.00,60.00,Wednesday
6,8.9
8,59765845.244432929
8049,15302681.643924792
2,3, 1, 3, 0, 1, 0.00,15.00,Thursday
6,9.025
8,73343783.1013257
8049,14852116.28638289
2,3, 1, 3, 0, 1,15.00,30.00,Thursday
6,9.15
8,57750176.507728029
8049,15133433.03581966
2,3, 1, 3, 0, 1,30.00,45.00,Thursday
6,9.275
8,73359575.36599186
8049,14708280.397305582
2,3, 1, 3, 0, 1,45.00,60.00,Thursday
6,9.4
8,57739904.10379312
8049,14980205.276448012
2,3, 1, 3, 0, 2, 0.00,15.00,Thursday
6,9.55
8,73783592.88732127
8049,14538544.268102488
2,3, 1, 3, 0, 2,15.00,30.00,Thursday
6,9.7
8,57950417.93354227
8049,14776460.765766088
2,3, 1, 3, 0, 2,30.00,45.00,Thursday
6,9.85
8,74052997.83435816
8049,14343637.737571307
2,3, 1, 3, 0, 2,45.00,60.00,Thursday
6,10.0
8,57943669.8527671
8049,14575092.992012132
2,3, 1, 3, 0, 3, 0.00,15.00,Thursday
6,10.55
8,75133466.56422524
8049,13929095.443607929
2,3, 1, 3, 0, 3,15.00,30.00,Thursday
6,11.1
8,58092984.77105224
8049,13875537.751017258
2,3, 1, 3, 0, 3,30.00,45.00,Thursday
6,11.649999999999999
8,75877635.1417545
8049,13294660.58047005
2,3, 1, 3, 0, 3,45.00,60.00,Thursday
6,12.2
8,58117114.697719369
8049,13211868.550625526
2,3, 1, 3, 0, 4, 0.00,15.00,Thursday
6,12.624999999999999
8,76681138.32178942
8049,12728927.097843413
2,3, 1, 3, 0, 4,15.00,30.00,Thursday
6,13.05
8,58401425.83676591
8049,12719027.908794534
2,3, 1, 3, 0, 4,30.00,45.00,Thursday
6,13.475000000000002
8,77127387.57117549
8049,12232748.38666346
2,3, 1, 3, 0, 4,45.00,60.00,Thursday
6,13.9
8,58399845.26745641
8049,12223688.223087527
2,3, 1, 3, 0, 5, 0.00,15.00,Thursday
6,13.625
8,75473971.96471758
8049,12128612.696027441
2,3, 1, 3, 0, 5,15.00,30.00,Thursday
6,13.350000000000002
8,59295508.629531148
8049,12621765.198978067
2,3, 1, 3, 0, 5,30.00,45.00,Thursday
6,13.075000000000001
8,76990991.46231807
8049,12417036.630810157
2,3, 1, 3, 0, 5,45.00,60.00,Thursday
6,12.8
8,58504898.35581217
8049,12920787.36582112
2,3, 1, 3, 0, 6, 0.00,15.00,Thursday
6,12.650000000000003
8,78575954.48647587
8049,12634377.488220957
2,3, 1, 3, 0, 6,15.00,30.00,Thursday
6,12.5
8,60321952.255598928
8049,13057555.93040133
2,3, 1, 3, 0, 6,30.00,45.00,Thursday
6,12.349999999999998
8,78097819.20895748
8049,12780376.7248332
2,3, 1, 3, 0, 6,45.00,60.00,Thursday
6,12.2
8,60320538.18342331
8049,13203298.57535625
2,3, 1, 3, 0, 7, 0.00,15.00,Thursday
6,11.924999999999999
8,121997293.52094487
8049,35464657.22931586
2,3, 1, 3, 0, 7,15.00,30.00,Thursday
6,11.649999999999999
8,100163714.53315467
8049,28903002.690133916
2,3, 1, 3, 0, 7,30.00,45.00,Thursday
6,11.375
8,122275649.13154947
8049,24499162.5053581
2,3, 1, 3, 0, 7,45.00,60.00,Thursday
6,11.1
8,100611534.96151786
8049,25557654.066586757
2,3, 1, 3, 0, 8, 0.00,15.00,Thursday
6,11.1
8,141338402.74662958
8049,23485577.126696163
2,3, 1, 3, 0, 8,15.00,30.00,Thursday
6,11.1
8,102384388.23998428
8049,26637584.28684271
2,3, 1, 3, 0, 8,30.00,45.00,Thursday
6,11.1
8,140423163.3930643
8049,24776758.710140874
2,3, 1, 3, 0, 8,45.00,60.00,Thursday
6,11.1
8,102558445.82232204
8049,26180955.733553225
2,3, 1, 3, 0, 9, 0.00,15.00,Thursday
6,11.25
8,130370830.98738817
8049,24383514.950148465
2,3, 1, 3, 0, 9,15.00,30.00,Thursday
6,11.399999999999999
8,152797387.22366537
8049,24026116.777039105
2,3, 1, 3, 0, 9,30.00,45.00,Thursday
6,11.549999999999999
8,179856912.85606475
8049,20764139.482615934
2,3, 1, 3, 0, 9,45.00,60.00,Thursday
6,11.7
8,136713566.79119874
8049,21137551.52345431
2,3, 1, 3, 0,10, 0.00,15.00,Thursday
6,12.099999999999998
8,198829949.2759727
8049,18120256.47971005
2,3, 1, 3, 0,10,15.00,30.00,Thursday
6,12.5
8,158205470.68377633
8049,16973290.137654038
2,3, 1, 3, 0,10,30.00,45.00,Thursday
6,12.900000000000003
8,197475042.40620456
8049,12868668.74424013
2,3, 1, 3, 0,10,45.00,60.00,Thursday
6,13.3
8,157989548.170426
8049,13314045.542291372
2,3, 1, 3, 0,11, 0.00,15.00,Thursday
6,13.025000000000003
8,197575377.02811183
8049,12396610.598601293
2,3, 1, 3, 0,11,15.00,30.00,Thursday
6,12.75
8,157819358.64780084
8049,13146330.801916046
2,3, 1, 3, 0,11,30.00,45.00,Thursday
6,12.474999999999998
8,197265643.4707199
8049,12652259.303502864
2,3, 1, 3, 0,11,45.00,60.00,Thursday
6,12.2
8,157938351.81908498
8049,13222769.455719332
2,3, 1, 3, 0,12, 0.00,15.00,Thursday
6,12.899999999999999
8,194112169.1618913
8049,12454870.599898411
2,3, 1, 3, 0,12,15.00,30.00,Thursday
6,13.6
8,156122598.96727909
8049,12335155.408366163
2,3, 1, 3, 0,12,30.00,45.00,Thursday
6,14.3
8,201350953.0650223
8049,11715372.08866852
2,3, 1, 3, 0,12,45.00,60.00,Thursday
6,15.0
8,159618632.41950564
8049,11598070.07809392
2,3, 1, 3, 0,13, 0.00,15.00,Thursday
6,15.15
8,199425898.3781899
8049,11285635.169044339
2,3, 1, 3, 0,13,15.00,30.00,Thursday
6,15.3
8,157717787.69400636
8049,11555787.96518332
2,3, 1, 3, 0,13,30.00,45.00,Thursday
6,15.45
8,199657339.77978293
8049,11166284.246528684
2,3, 1, 3, 0,13,45.00,60.00,Thursday
6,15.6
8,158065046.4455464
8049,11444646.292885066
2,3, 1, 3, 0,14, 0.00,15.00,Thursday
6,15.725
8,201406884.78240256
8049,11063575.366905414
2,3, 1, 3, 0,14,15.00,30.00,Thursday
6,15.850000000000002
8,173745206.63941065
8049,11360622.712041513
2,3, 1, 3, 0,14,30.00,45.00,Thursday
6,15.975000000000002
8,201531219.5179043
8049,10977613.512169045
2,3, 1, 3, 0,14,45.00,60.00,Thursday
6,16.1
8,173953134.2783786
8049,11276912.039638857
2,3, 1, 3, 0,15, 0.00,15.00,Thursday
6,16.1
8,193853971.53527395
8049,10965411.864394218
2,3, 1, 3, 0,15,15.00,30.00,Thursday
6,16.1
8,169245598.3341925
8049,11349503.77737937
2,3, 1, 3, 0,15,30.00,45.00,Thursday
6,16.1
8,208258803.17672316
8049,11027310.214105593
2,3, 1, 3, 0,15,45.00,60.00,Thursday
6,16.1
8,176506982.79956535
8049,11417910.393642873
2,3, 1, 3, 0,16, 0.00,15.00,Thursday
6,15.55
8,201798861.7050431
8049,11400368.707813004
2,3, 1, 3, 0,16,15.00,30.00,Thursday
6,15.0
8,168164443.7942388
8049,12146145.59198198
2,3, 1, 3, 0,16,30.00,45.00,Thursday
6,14.450000000000001
8,201077061.78695078
8049,12127586.13675846
2,3, 1, 3, 0,16,45.00,60.00,Thursday
6,13.9
8,167925645.83637325
8049,12834270.141304175
2,3, 1, 3, 0,17, 0.00,15.00,Thursday
6,13.9
8,201040749.8806774
8049,12437336.167836249
2,3, 1, 3, 0,17,15.00,30.00,Thursday
6,13.9
8,167995938.69153483
8049,12840534.414155983
2,3, 1, 3, 0,17,30.00,45.00,Thursday
6,13.9
8,200930268.8021701
8049,12470424.130999404
2,3, 1, 3, 0,17,45.00,60.00,Thursday
6,13.9
8,167901547.8622998
8049,12861853.336757953
2,3, 1, 3, 0,18, 0.00,15.00,Thursday
6,13.625
8,201127422.0950292
8049,12645949.587384185
2,3, 1, 3, 0,18,15.00,30.00,Thursday
6,13.350000000000002
8,167560133.72865523
8049,13220112.271301933
2,3, 1, 3, 0,18,30.00,45.00,Thursday
6,13.075000000000001
8,200226485.12521655
8049,12968525.397483277
2,3, 1, 3, 0,18,45.00,60.00,Thursday
6,12.8
8,166997402.62094224
8049,13541947.174299553
2,3, 1, 3, 0,19, 0.00,15.00,Thursday
6,12.650000000000003
8,143087733.69303773
8049,13214734.4177044
2,3, 1, 3, 0,19,15.00,30.00,Thursday
6,12.5
8,168393541.39313109
8049,13712287.820481925
2,3, 1, 3, 0,19,30.00,45.00,Thursday
6,12.349999999999998
8,193784276.08653719
8049,13437682.324769889
2,3, 1, 3, 0,19,45.00,60.00,Thursday
6,12.2
8,163414212.84412394
8049,13880086.96444055
2,3, 1, 3, 0,20, 0.00,15.00,Thursday
6,11.799999999999999
8,191258092.82848753
8049,13759439.961531325
2,3, 1, 3, 0,20,15.00,30.00,Thursday
6,11.399999999999999
8,155256002.29959614
8049,14414448.537339116
2,3, 1, 3, 0,20,30.00,45.00,Thursday
6,11.0
8,186850451.9020511
8049,14227365.995012667
2,3, 1, 3, 0,20,45.00,60.00,Thursday
6,10.6
8,153118227.99455748
8049,14866205.606379377
2,3, 1, 3, 0,21, 0.00,15.00,Thursday
6,10.45
8,175034902.26473058
8049,14519662.096797159
2,3, 1, 3, 0,21,15.00,30.00,Thursday
6,10.3
8,141418942.80868624
8049,15408017.729176216
2,3, 1, 3, 0,21,30.00,45.00,Thursday
6,10.15
8,174048566.30757613
8049,15828651.614651056
2,3, 1, 3, 0,21,45.00,60.00,Thursday
6,10.0
8,135958089.7631075
8049,16656578.95467535
2,3, 1, 3, 0,22, 0.00,15.00,Thursday
6,9.725
8,109756634.27797844
8049,17241376.841488977
2,3, 1, 3, 0,22,15.00,30.00,Thursday
6,9.45
8,84322075.85197872
8049,19137106.648891204
2,3, 1, 3, 0,22,30.00,45.00,Thursday
6,9.175
8,101096815.33120394
8049,19975370.877746043
2,3, 1, 3, 0,22,45.00,60.00,Thursday
6,8.9
8,84352579.75225975
8049,22755981.700936017
2,3, 1, 3, 0,23, 0.00,15.00,Thursday
6,8.9
8,77964063.03804869
8049,15703544.219671088
2,3, 1, 3, 0,23,15.00,30.00,Thursday
6,8.9
8,61335882.20464406
8049,16055313.55342193
2,3, 1, 3, 0,23,30.00,45.00,Thursday
6,8.9
8,77263048.31734225
8049,15475499.065142129
2,3, 1, 3, 0,23,45.00,60.00,Thursday
6,8.9
8,61106727.12320238
8049,15849664.46054304
2,3, 1, 3, 0,24, 0.00,15.00,Thursday
6,8.9
8,72586985.71129994
8049,15428081.559955562
2,3, 1, 3, 0,24,15.00,30.00,Thursday
6,8.9
8,58212003.73477201
8049,15746016.51569044
2,3, 1, 3, 0,24,30.00,45.00,Thursday
6,8.9
8,77537940.48363635
8049,15361559.533898768
2,3, 1, 3, 0,24,45.00,60.00,Thursday
6,8.9
8,59768371.9354418
8049,15722128.452774438
2,4, 1, 4, 0, 1, 0.00,15.00,Friday
6,8.75
8,73327821.07385798
8049,15431441.86966592
2,4, 1, 4, 0, 1,15.00,30.00,Friday
6,8.600000000000002
8,57752629.00893091
8049,15880216.211256823
2,4, 1, 4, 0, 1,30.00,45.00,Friday
6,8.450000000000001
8,72588966.35997088
8049,15580813.78505551
2,4, 1, 4, 0, 1,45.00,60.00,Friday
6,8.3
8,57742182.432682167
8049,16030887.30821233
2,4, 1, 4, 0, 2, 0.00,15.00,Friday
6,8.175
8,72501914.02089428
8049,15715080.607623548
2,4, 1, 4, 0, 2,15.00,30.00,Friday
6,8.05
8,57952121.09600855
8049,16136119.948069454
2,4, 1, 4, 0, 2,30.00,45.00,Friday
6,7.925
8,72251528.2798342
8049,15834841.754824609
2,4, 1, 4, 0, 2,45.00,60.00,Friday
6,7.8
8,57944474.47525483
8049,16250169.516133909
2,4, 1, 4, 0, 3, 0.00,15.00,Friday
6,7.925
8,72359644.65697517
8049,15816575.549383648
2,4, 1, 4, 0, 3,15.00,30.00,Friday
6,8.05
8,58092206.2517631
8049,16069161.901744355
2,4, 1, 4, 0, 3,30.00,45.00,Friday
6,8.175
8,72489093.24396678
8049,15660347.108266853
2,4, 1, 4, 0, 3,45.00,60.00,Friday
6,8.3
8,58086657.16285646
8049,15905821.7599137
2,4, 1, 4, 0, 4, 0.00,15.00,Friday
6,7.75
8,72464873.63579549
8049,15867546.679576057
2,4, 1, 4, 0, 4,15.00,30.00,Friday
6,7.2
8,58396796.66647249
8049,17058256.492961304
2,4, 1, 4, 0, 4,30.00,45.00,Friday
6,6.6499999999999999
8,71815627.3672698
8049,17901293.77201812
2,4, 1, 4, 0, 4,45.00,60.00,Friday
6,6.1
8,58392329.20284661
8049,20292099.789798034
2,4, 1, 4, 0, 5, 0.00,15.00,Friday
6,5.674999999999999
8,69728721.59643835
8049,20788046.6623318
2,4, 1, 4, 0, 5,15.00,30.00,Friday
6,5.25
8,59280929.80871194
8049,23535613.266022333
2,4, 1, 4, 0, 5,30.00,45.00,Friday
6,4.825
8,71109567.04538515
8049,23780707.728154217
2,4, 1, 4, 0, 5,45.00,60.00,Friday
6,4.4
8,58491253.60916335
8049,26378937.523013396
2,4, 1, 4, 0, 6, 0.00,15.00,Friday
6,4.825
8,72914426.62616071
8049,24118623.067702466
2,4, 1, 4, 0, 6,15.00,30.00,Friday
6,5.25
8,60306915.529047969
8049,24413767.202709345
2,4, 1, 4, 0, 6,30.00,45.00,Friday
6,5.674999999999999
8,72889653.62869749
8049,22264846.404115205
2,4, 1, 4, 0, 6,45.00,60.00,Friday
6,6.1
8,60304664.559939477
8049,22511477.895247118
2,4, 1, 4, 0, 7, 0.00,15.00,Friday
6,5.824999999999999
8,117010418.40423101
8049,66538011.3663807
2,4, 1, 4, 0, 7,15.00,30.00,Friday
6,5.55
8,100142263.76833548
8049,51651276.35893754
2,4, 1, 4, 0, 7,30.00,45.00,Friday
6,5.275
8,117320451.10960929
8049,45175500.274867277
2,4, 1, 4, 0, 7,45.00,60.00,Friday
6,5.0
8,100523185.28035288
8049,45907466.73907641
2,4, 1, 4, 0, 8, 0.00,15.00,Friday
6,5.425
8,136617841.3709005
8049,42701050.43459999
2,4, 1, 4, 0, 8,15.00,30.00,Friday
6,5.85
8,102363385.43955752
8049,44751090.25314405
2,4, 1, 4, 0, 8,30.00,45.00,Friday
6,6.275
8,136785655.765619
8049,41629985.00548735
2,4, 1, 4, 0, 8,45.00,60.00,Friday
6,6.7
8,102537991.6594901
8049,41792770.81653632
2,4, 1, 4, 0, 9, 0.00,15.00,Friday
6,7.1000000000000009
8,130357697.06366737
8049,39340319.534192759