Program Version,EnergyPlus, Version 8.6.0-198c6a3cff, YMD=2016.10.18 16:27
1,5,Environment Title[],Latitude[deg],Longitude[deg],Time Zone[],Elevation[m]
2,6,Day of Simulation[],Month[],Day of Month[],DST Indicator[1=yes 0=no],Hour[],StartMinute[],EndMinute[],DayType
3,3,Cumulative Day of Simulation[],Month[],Day of Month[],DST Indicator[1=yes 0=no],DayType  ! When Daily Meters Requested
4,2,Cumulative Days of Simulation[],Month[]  ! When Monthly Meters Requested
5,1,Cumulative Days of Simulation[] ! When Run Period Meters Requested
11,1,Electricity:Facility [J] !Hourly
62,1,InteriorLights:Electricity [J] !Hourly
198,1,InteriorEquipment:Electricity [J] !Hourly
295,1,Gas:Facility [J] !Hourly
325,1,InteriorEquipment:Gas [J] !Hourly
13,9,Electricity:Facility [J] !Monthly  [Value,Min,Day,Hour,Minute,Max,Day,Hour,Minute]
297,9,Gas:Facility [J] !Monthly  [Value,Min,Day,Hour,Minute,Max,Day,Hour,Minute]
737,9,CO2:Facility [kg] !Monthly  [Value,Min,Day,Hour,Minute,Max,Day,Hour,Minute]
758,9,CO:Facility [kg] !Monthly  [Value,Min,Day,Hour,Minute,Max,Day,Hour,Minute]
779,9,CH4:Facility [kg] !Monthly  [Value,Min,Day,Hour,Minute,Max,Day,Hour,Minute]
800,9,NOx:Facility [kg] !Monthly  [Value,Min,Day,Hour,Minute,Max,Day,Hour,Minute]
821,9,N2O:Facility [kg] !Monthly  [Value,Min,Day,Hour,Minute,Max,Day,Hour,Minute]
842,9,SO2:Facility [kg] !Monthly  [Value,Min,Day,Hour,Minute,Max,Day,Hour,Minute]
863,9,PM:Facility [kg] !Monthly  [Value,Min,Day,Hour,Minute,Max,Day,Hour,Minute]
884,9,PM10:Facility [kg] !Monthly  [Value,Min,Day,Hour,Minute,Max,Day,Hour,Minute]
905,9,PM2.5:Facility [kg] !Monthly  [Value,Min,Day,Hour,Minute,Max,Day,Hour,Minute]
926,9,NH3:Facility [kg] !Monthly  [Value,Min,Day,Hour,Minute,Max,Day,Hour,Minute]
947,9,NMVOC:Facility [kg] !Monthly  [Value,Min,Day,Hour,Minute,Max,Day,Hour,Minute]
968,9,Hg:Facility [kg] !Monthly  [Value,Min,Day,Hour,Minute,Max,Day,Hour,Minute]
989,9,Pb:Facility [kg] !Monthly  [Value,Min,Day,Hour,Minute,Max,Day,Hour,Minute]
1010,9,WaterEnvironmentalFactors:Facility [L] !Monthly  [Value,Min,Day,Hour,Minute,Max,Day,Hour,Minute]
1031,9,Nuclear High:Facility [kg] !Monthly  [Value,Min,Day,Hour,Minute,Max,Day,Hour,Minute]
1052,9,Nuclear Low:Facility [m3] !Monthly  [Value,Min,Day,Hour,Minute,Max,Day,Hour,Minute]
1282,9,Carbon Equivalent:Facility [kg] !Monthly  [Value,Min,Day,Hour,Minute,Max,Day,Hour,Minute]
End of Data Dictionary
1,San Francisco Intl Ap CA USA TMY3 WMO#=724940,  37.62,-122.40,  -8.00,   2.00
2,1, 1, 1, 0, 1, 0.00,60.00,Holiday
11,85981236.2553174
62,12577284.029609569
198,24526752.225707845
295,6304500.0
325,6304500.0
2,1, 1, 1, 0, 2, 0.00,60.00,Holiday
11,85981236.2553174
62,12577284.029609569
198,24526752.225707845
295,6304500.0
325,6304500.0
2,1, 1, 1, 0, 3, 0.00,60.00,Holiday
11,85981236.2553174
62,12577284.029609569
198,24526752.225707845
295,6304500.0
325,6304500.0
2,1, 1, 1, 0, 4, 0.00,60.00,Holiday
11,85981236.2553174
62,12577284.029609569
198,24526752.225707845
295,6304500.0
325,6304500.0
2,1, 1, 1, 0, 5, 0.00,60.00,Holiday
11,85981236.2553174
62,12577284.029609569
198,24526752.225707845
295,6304500.0
325,6304500.0
2,1, 1, 1, 0, 6, 0.00,60.00,Holiday
11,85981236.2553174
62,12577284.029609569
198,24526752.225707845
295,6304500.0
325,6304500.0
2,1, 1, 1, 0, 7, 0.00,60.00,Holiday
11,124971672.51063481
62,25154568.059219138
198,50939904.45141569
295,12609000.0
325,12609000.0
2,1, 1, 1, 0, 8, 0.00,60.00,Holiday
11,88313772.51063483
62,25154568.059219138
198,50939904.45141569
295,12609000.0
325,12609000.0
2,1, 1, 1, 0, 9, 0.00,60.00,Holiday
11,76094472.51063483
62,25154568.059219138
198,50939904.45141569
295,12609000.0
325,12609000.0
2,1, 1, 1, 0,10, 0.00,60.00,Holiday
11,76094472.51063483
62,25154568.059219138
198,50939904.45141569
295,12609000.0
325,12609000.0
2,1, 1, 1, 0,11, 0.00,60.00,Holiday
11,200611681.1397079
62,100618272.23687655
198,99993408.90283138
295,25218000.0
325,25218000.0
2,1, 1, 1, 0,12, 0.00,60.00,Holiday
11,200611681.1397079
62,100618272.23687655
198,99993408.90283138
295,25218000.0
325,25218000.0
2,1, 1, 1, 0,13, 0.00,60.00,Holiday
11,283623153.55909
62,150927408.3553148
198,132695745.20377517
295,33624000.00000001
325,33624000.00000001
2,1, 1, 1, 0,14, 0.00,60.00,Holiday
11,283623153.55909
62,150927408.3553148
198,132695745.20377517
295,33624000.00000001
325,33624000.00000001
2,1, 1, 1, 0,15, 0.00,60.00,Holiday
11,283623153.55909
62,150927408.3553148
198,132695745.20377517
295,33624000.00000001
325,33624000.00000001
2,1, 1, 1, 0,16, 0.00,60.00,Holiday
11,283623153.55909
62,150927408.3553148
198,132695745.20377517
295,33624000.00000001
325,33624000.00000001
2,1, 1, 1, 0,17, 0.00,60.00,Holiday
11,295842453.55909
62,150927408.3553148
198,132695745.20377517
295,33624000.00000001
325,33624000.00000001
2,1, 1, 1, 0,18, 0.00,60.00,Holiday
11,249488881.1397079
62,100618272.23687655
198,99993408.90283138
295,25218000.0
325,25218000.0
2,1, 1, 1, 0,19, 0.00,60.00,Holiday
11,166477408.7203259
62,50309136.11843827
198,67291072.60188759
295,16812000.000000005
325,16812000.000000005
2,1, 1, 1, 0,20, 0.00,60.00,Holiday
11,166477408.7203259
62,50309136.11843827
198,67291072.60188759
295,16812000.000000005
325,16812000.000000005
2,1, 1, 1, 0,21, 0.00,60.00,Holiday
11,166477408.7203259
62,50309136.11843827
198,67291072.60188759
295,16812000.000000005
325,16812000.000000005
2,1, 1, 1, 0,22, 0.00,60.00,Holiday
11,166477408.7203259
62,50309136.11843827
198,67291072.60188759
295,16812000.000000005
325,16812000.000000005
2,1, 1, 1, 0,23, 0.00,60.00,Holiday
11,85981236.2553174
62,12577284.029609569
198,24526752.225707845
295,6304500.0
325,6304500.0
2,1, 1, 1, 0,24, 0.00,60.00,Holiday
11,85981236.2553174
62,12577284.029609569
198,24526752.225707845
295,6304500.0
325,6304500.0
2,2, 1, 2, 0, 1, 0.00,60.00,Monday
11,94156820.33055339
62,12577284.029609569
198,32702336.300943793
295,8406000.000000002
325,8406000.000000002
2,2, 1, 2, 0, 2, 0.00,60.00,Monday
11,94156820.33055339
62,12577284.029609569
198,32702336.300943793
295,8406000.000000002
325,8406000.000000002
2,2, 1, 2, 0, 3, 0.00,60.00,Monday
11,94156820.33055339
62,12577284.029609569
198,32702336.300943793
295,8406000.000000002
325,8406000.000000002
2,2, 1, 2, 0, 4, 0.00,60.00,Monday
11,94156820.33055339
62,12577284.029609569
198,32702336.300943793
295,8406000.000000002
325,8406000.000000002
2,2, 1, 2, 0, 5, 0.00,60.00,Monday
11,94156820.33055339
62,12577284.029609569
198,32702336.300943793
295,8406000.000000002
325,8406000.000000002
2,2, 1, 2, 0, 6, 0.00,60.00,Monday
11,94156820.33055339
62,12577284.029609569
198,32702336.300943793
295,8406000.000000002
325,8406000.000000002
2,2, 1, 2, 0, 7, 0.00,60.00,Monday
11,166477408.7203259
62,50309136.11843827
198,67291072.60188759
295,16812000.000000005
325,16812000.000000005
2,2, 1, 2, 0, 8, 0.00,60.00,Monday
11,129819508.72032589
62,50309136.11843827
198,67291072.60188759
295,16812000.000000005
325,16812000.000000005
2,2, 1, 2, 0, 9, 0.00,60.00,Monday
11,242117417.34939898
62,125772840.29609567
198,116344577.05330327
295,29420999.999999998
325,29420999.999999998
2,2, 1, 2, 0,10, 0.00,60.00,Monday
11,375438025.8872193
62,226391112.5329722
198,149046913.35424707
295,37827000.0
325,37827000.0
2,2, 1, 2, 0,11, 0.00,60.00,Monday
11,375438025.8872193
62,226391112.5329722
198,149046913.35424707
295,37827000.0
325,37827000.0
2,2, 1, 2, 0,12, 0.00,60.00,Monday
11,375438025.8872193
62,226391112.5329722
198,149046913.35424707
295,37827000.0
325,37827000.0
2,2, 1, 2, 0,13, 0.00,60.00,Monday
11,375438025.8872193
62,226391112.5329722
198,149046913.35424707
295,37827000.0
325,37827000.0
2,2, 1, 2, 0,14, 0.00,60.00,Monday
11,375438025.8872193
62,226391112.5329722
198,149046913.35424707
295,37827000.0
325,37827000.0
2,2, 1, 2, 0,15, 0.00,60.00,Monday
11,375438025.8872193
62,226391112.5329722
198,149046913.35424707
295,37827000.0
325,37827000.0
2,2, 1, 2, 0,16, 0.00,60.00,Monday
11,375438025.8872193
62,226391112.5329722
198,149046913.35424707
295,37827000.0
325,37827000.0
2,2, 1, 2, 0,17, 0.00,60.00,Monday
11,387657325.8872193
62,226391112.5329722
198,149046913.35424707
295,37827000.0
325,37827000.0
2,2, 1, 2, 0,18, 0.00,60.00,Monday
11,424315225.8872193
62,226391112.5329722
198,149046913.35424707
295,37827000.0
325,37827000.0
2,2, 1, 2, 0,19, 0.00,60.00,Monday
11,332500353.55909
62,150927408.3553148
198,132695745.20377517
295,33624000.00000001
325,33624000.00000001
2,2, 1, 2, 0,20, 0.00,60.00,Monday
11,332500353.55909
62,150927408.3553148
198,132695745.20377517
295,33624000.00000001
325,33624000.00000001
2,2, 1, 2, 0,21, 0.00,60.00,Monday
11,290994617.349399
62,125772840.29609567
198,116344577.05330327
295,29420999.999999998
325,29420999.999999998
2,2, 1, 2, 0,22, 0.00,60.00,Monday
11,166477408.7203259
62,50309136.11843827
198,67291072.60188759
295,16812000.000000005
325,16812000.000000005
2,2, 1, 2, 0,23, 0.00,60.00,Monday
11,94156820.33055339
62,12577284.029609569
198,32702336.300943793
295,8406000.000000002
325,8406000.000000002
2,2, 1, 2, 0,24, 0.00,60.00,Monday
11,94156820.33055339
62,12577284.029609569
198,32702336.300943793
295,8406000.000000002
325,8406000.000000002
2,3, 1, 3, 0, 1, 0.00,60.00,Tuesday
11,94156820.33055339
62,12577284.029609569
198,32702336.300943793
295,8406000.000000002
325,8406000.000000002
2,3, 1, 3, 0, 2, 0.00,60.00,Tuesday
11,94156820.33055339
62,12577284.029609569
198,32702336.300943793
295,8406000.000000002
325,8406000.000000002
2,3, 1, 3, 0, 3, 0.00,60.00,Tuesday
11,94156820.33055339
62,12577284.029609569
198,32702336.300943793
295,8406000.000000002
325,8406000.000000002
2,3, 1, 3, 0, 4, 0.00,60.00,Tuesday
11,94156820.33055339
62,12577284.029609569
198,32702336.300943793
295,8406000.000000002
325,8406000.000000002
2,3, 1, 3, 0, 5, 0.00,60.00,Tuesday
11,94156820.33055339
62,12577284.029609569
198,32702336.300943793
295,8406000.000000002
325,8406000.000000002
2,3, 1, 3, 0, 6, 0.00,60.00,Tuesday
11,94156820.33055339
62,12577284.029609569
198,32702336.300943793
295,8406000.000000002
325,8406000.000000002
2,3, 1, 3, 0, 7, 0.00,60.00,Tuesday
11,166477408.7203259
62,50309136.11843827
198,67291072.60188759
295,16812000.000000005
325,16812000.000000005
2,3, 1, 3, 0, 8, 0.00,60.00,Tuesday
11,129819508.72032589
62,50309136.11843827
198,67291072.60188759
295,16812000.000000005
325,16812000.000000005
2,3, 1, 3, 0, 9, 0.00,60.00,Tuesday
11,242117417.34939898
62,125772840.29609567
198,116344577.05330327
295,29420999.999999998
325,29420999.999999998
2,3, 1, 3, 0,10, 0.00,60.00,Tuesday
11,375438025.8872193
62,226391112.5329722
198,149046913.35424707
295,37827000.0
325,37827000.0
2,3, 1, 3, 0,11, 0.00,60.00,Tuesday
11,375438025.8872193
62,226391112.5329722
198,149046913.35424707
295,37827000.0
325,37827000.0
2,3, 1, 3, 0,12, 0.00,60.00,Tuesday
11,375438025.8872193
62,226391112.5329722
198,149046913.35424707
295,37827000.0
325,37827000.0
2,3, 1, 3, 0,13, 0.00,60.00,Tuesday
11,375438025.8872193
62,226391112.5329722
198,149046913.35424707
295,37827000.0
325,37827000.0
2,3, 1, 3, 0,14, 0.00,60.00,Tuesday
11,375438025.8872193
62,226391112.5329722
198,149046913.35424707
295,37827000.0
325,37827000.0
2,3, 1, 3, 0,15, 0.00,60.00,Tuesday
11,375438025.8872193
62,226391112.5329722
198,149046913.35424707
295,37827000.0
325,37827000.0
2,3, 1, 3, 0,16, 0.00,60.00,Tuesday
11,375438025.8872193
62,226391112.5329722
198,149046913.35424707
295,37827000.0
325,37827000.0
2,3, 1, 3, 0,17, 0.00,60.00,Tuesday
11,387657325.8872193
62,226391112.5329722
198,149046913.35424707
295,37827000.0
325,37827000.0
2,3, 1, 3, 0,18, 0.00,60.00,Tuesday
11,424315225.8872193
62,226391112.5329722
198,149046913.35424707
295,37827000.0
325,37827000.0
2,3, 1, 3, 0,19, 0.00,60.00,Tuesday
11,332500353.55909
62,150927408.3553148
198,132695745.20377517
295,33624000.00000001
325,33624000.00000001
2,3, 1, 3, 0,20, 0.00,60.00,Tuesday
11,332500353.55909
62,150927408.3553148
198,132695745.20377517
295,33624000.00000001
325,33624000.00000001
2,3, 1, 3, 0,21, 0.00,60.00,Tuesday
11,290994617.349399
62,125772840.29609567
198,116344577.05330327
295,29420999.999999998
325,29420999.999999998
2,3, 1, 3, 0,22, 0.00,60.00,Tuesday
11,166477408.7203259
62,50309136.11843827
198,67291072.60188759
295,16812000.000000005
325,16812000.000000005
2,3, 1, 3, 0,23, 0.00,60.00,Tuesday
11,94156820.33055339
62,12577284.029609569
198,32702336.300943793
295,8406000.000000002
325,8406000.000000002
2,3, 1, 3, 0,24, 0.00,60.00,Tuesday
11,94156820.33055339
62,12577284.029609569
198,32702336.300943793
295,8406000.000000002
325,8406000.000000002
2,4, 1, 4, 0, 1, 0.00,60.00,Wednesday
11,94156820.33055339
62,12577284.029609569
198,32702336.300943793
295,8406000.000000002
325,8406000.000000002
2,4, 1, 4, 0, 2, 0.00,60.00,Wednesday
11,94156820.33055339
62,12577284.029609569
198,32702336.300943793
295,8406000.000000002
325,8406000.000000002
2,4, 1, 4, 0, 3, 0.00,60.00,Wednesday
11,94156820.33055339
62,12577284.029609569
198,32702336.300943793
295,8406000.000000002
325,8406000.000000002
2,4, 1, 4, 0, 4, 0.00,60.00,Wednesday
11,94156820.33055339
62,12577284.029609569
198,32702336.300943793
295,8406000.000000002
325,8406000.000000002
2,4, 1, 4, 0, 5, 0.00,60.00,Wednesday
11,94156820.33055339
62,12577284.029609569
198,32702336.300943793
295,8406000.000000002
325,8406000.000000002
2,4, 1, 4, 0, 6, 0.00,60.00,Wednesday
11,94156820.33055339
62,12577284.029609569
198,32702336.300943793
295,8406000.000000002
325,8406000.000000002
2,4, 1, 4, 0, 7, 0.00,60.00,Wednesday
11,166477408.7203259
62,50309136.11843827
198,67291072.60188759
295,16812000.000000005
325,16812000.000000005
2,4, 1, 4, 0, 8, 0.00,60.00,Wednesday
11,142038808.7203259
62,50309136.11843827
198,67291072.60188759
295,16812000.000000005
325,16812000.000000005
2,4, 1, 4, 0, 9, 0.00,60.00,Wednesday
11,242117417.34939898
62,125772840.29609567
198,116344577.05330327
295,29420999.999999998
325,29420999.999999998
2,4, 1, 4, 0,10, 0.00,60.00,Wednesday
11,375438025.8872193
62,226391112.5329722
198,149046913.35424707
295,37827000.0
325,37827000.0
2,4, 1, 4, 0,11, 0.00,60.00,Wednesday
11,375438025.8872193
62,226391112.5329722
198,149046913.35424707
295,37827000.0
325,37827000.0
2,4, 1, 4, 0,12, 0.00,60.00,Wednesday
11,375438025.8872193
62,226391112.5329722
198,149046913.35424707
295,37827000.0
325,37827000.0
2,4, 1, 4, 0,13, 0.00,60.00,Wednesday
11,375438025.8872193
62,226391112.5329722
198,149046913.35424707
295,37827000.0
325,37827000.0
2,4, 1, 4, 0,14, 0.00,60.00,Wednesday
11,375438025.8872193
62,226391112.5329722
198,149046913.35424707
295,37827000.0
325,37827000.0
2,4, 1, 4, 0,15, 0.00,60.00,Wednesday
11,375438025.8872193
62,226391112.5329722
198,149046913.35424707
295,37827000.0
325,37827000.0
2,4, 1, 4, 0,16, 0.00,60.00,Wednesday
11,375438025.8872193
62,226391112.5329722
198,149046913.35424707
295,37827000.0
325,37827000.0
2,4, 1, 4, 0,17, 0.00,60.00,Wednesday
11,387657325.8872193
62,226391112.5329722
198,149046913.35424707
295,37827000.0
325,37827000.0
2,4, 1, 4, 0,18, 0.00,60.00,Wednesday
11,424315225.8872193
62,226391112.5329722
198,149046913.35424707
295,37827000.0
325,37827000.0
2,4, 1, 4, 0,19, 0.00,60.00,Wednesday
11,332500353.55909
62,150927408.3553148
198,132695745.20377517
295,33624000.00000001
325,33624000.00000001
2,4, 1, 4, 0,20, 0.00,60.00,Wednesday
11,332500353.55909
62,150927408.3553148
198,132695745.20377517
295,33624000.00000001
325,33624000.00000001
2,4, 1, 4, 0,21, 0.00,60.00,Wednesday
11,290994617.349399
62,125772840.29609567
198,116344577.05330327
295,29420999.999999998
325,29420999.999999998
2,4, 1, 4, 0,22, 0.00,60.00,Wednesday
11,166477408.7203259
62,50309136.11843827
198,67291072.60188759
295,16812000.000000005
325,16812000.000000005
2,4, 1, 4, 0,23, 0.00,60.00,Wednesday
11,94156820.33055339
62,12577284.029609569
198,32702336.300943793
295,8406000.000000002
325,8406000.000000002
2,4, 1, 4, 0,24, 0.00,60.00,Wednesday
11,94156820.33055339
62,12577284.029609569
198,32702336.300943793
295,8406000.000000002
325,8406000.000000002
2,5, 1, 5, 0, 1, 0.00,60.00,Thursday
11,94156820.33055339
62,12577284.029609569
198,32702336.300943793
295,8406000.000000002
325,8406000.000000002
2,5, 1, 5, 0, 2, 0.00,60.00,Thursday
11,94156820.33055339
62,12577284.029609569
198,32702336.300943793
295,8406000.000000002
325,8406000.000000002
2,5, 1, 5, 0, 3, 0.00,60.00,Thursday
11,94156820.33055339
62,12577284.029609569
198,32702336.300943793
295,8406000.000000002
325,8406000.000000002
2,5, 1, 5, 0, 4, 0.00,60.00,Thursday
11,94156820.33055339
62,12577284.029609569
198,32702336.300943793
295,8406000.000000002
325,8406000.000000002
2,5, 1, 5, 0, 5, 0.00,60.00,Thursday
11,94156820.33055339
62,12577284.029609569
198,32702336.300943793
295,8406000.000000002
325,8406000.000000002
2,5, 1, 5, 0, 6, 0.00,60.00,Thursday
11,94156820.33055339
62,12577284.029609569
198,32702336.300943793
295,8406000.000000002
325,8406000.000000002
2,5, 1, 5, 0, 7, 0.00,60.00,Thursday
11,166477408.7203259
62,50309136.11843827
198,67291072.60188759
295,16812000.000000005
325,16812000.000000005
2,5, 1, 5, 0, 8, 0.00,60.00,Thursday
11,142038808.7203259
62,50309136.11843827
198,67291072.60188759
295,16812000.000000005
325,16812000.000000005
2,5, 1, 5, 0, 9, 0.00,60.00,Thursday
11,242117417.34939898
62,125772840.29609567
198,116344577.05330327
295,29420999.999999998
325,29420999.999999998
2,5, 1, 5, 0,10, 0.00,60.00,Thursday
11,375438025.8872193
62,226391112.5329722
198,149046913.35424707
295,37827000.0
325,37827000.0
2,5, 1, 5, 0,11, 0.00,60.00,Thursday
11,375438025.8872193
62,226391112.5329722
198,149046913.35424707
295,37827000.0
325,37827000.0
2,5, 1, 5, 0,12, 0.00,60.00,Thursday
11,375438025.8872193
62,226391112.5329722
198,149046913.35424707
295,37827000.0
325,37827000.0
2,5, 1, 5, 0,13, 0.00,60.00,Thursday
11,375438025.8872193
62,226391112.5329722
198,149046913.35424707
295,37827000.0
325,37827000.0
2,5, 1, 5, 0,14, 0.00,60.00,Thursday
11,375438025.8872193
62,226391112.5329722
198,149046913.35424707
295,37827000.0
325,37827000.0
2,5, 1, 5, 0,15, 0.00,60.00,Thursday
11,375438025.8872193
62,226391112.5329722
198,149046913.35424707
295,37827000.0
325,37827000.0
2,5, 1, 5, 0,16, 0.00,60.00,Thursday
11,375438025.8872193
62,226391112.5329722
198,149046913.35424707
295,37827000.0
325,37827000.0
2,5, 1, 5, 0,17, 0.00,60.00,Thursday
11,387657325.8872193
62,226391112.5329722
198,149046913.35424707
295,37827000.0
325,37827000.0
2,5, 1, 5, 0,18, 0.00,60.00,Thursday
11,424315225.8872193
62,226391112.5329722
198,149046913.35424707
295,37827000.0
325,37827000.0
2,5, 1, 5, 0,19, 0.00,60.00,Thursday
11,332500353.55909
62,150927408.3553148
198,132695745.20377517
295,33624000.00000001
325,33624000.00000001
2,5, 1, 5, 0,20, 0.00,60.00,Thursday
11,332500353.55909
62,150927408.3553148
198,132695745.20377517
295,33624000.00000001
325,33624000.00000001
2,5, 1, 5, 0,21, 0.00,60.00,Thursday
11,290994617.349399
62,125772840.29609567
198,116344577.05330327
295,29420999.999999998
325,29420999.999999998
2,5, 1, 5, 0,22, 0.00,60.00,Thursday
11,166477408.7203259
62,50309136.11843827
198,67291072.60188759
295,16812000.000000005
325,16812000.000000005
2,5, 1, 5, 0,23, 0.00,60.00,Thursday
11,94156820.33055339
62,12577284.029609569
198,32702336.300943793
295,8406000.000000002
325,8406000.000000002
2,5, 1, 5, 0,24, 0.00,60.00,Thursday
11,94156820.33055339
62,12577284.029609569
198,32702336.300943793
295,8406000.000000002
325,8406000.000000002
2,6, 1, 6, 0, 1, 0.00,60.00,Friday
11,94156820.33055339
62,12577284.029609569
198,32702336.300943793
295,8406000.000000002
325,8406000.000000002
2,6, 1, 6, 0, 2, 0.00,60.00,Friday
11,94156820.33055339
62,12577284.029609569
198,32702336.300943793
295,8406000.000000002
325,8406000.000000002
2,6, 1, 6, 0, 3, 0.00,60.00,Friday
11,94156820.33055339
62,12577284.029609569
198,32702336.300943793
295,8406000.000000002
325,8406000.000000002
2,6, 1, 6, 0, 4, 0.00,60.00,Friday
11,94156820.33055339
62,12577284.029609569
198,32702336.300943793
295,8406000.000000002
325,8406000.000000002
2,6, 1, 6, 0, 5, 0.00,60.00,Friday
11,94156820.33055339
62,12577284.029609569
198,32702336.300943793
295,8406000.000000002
325,8406000.000000002
2,6, 1, 6, 0, 6, 0.00,60.00,Friday
11,94156820.33055339
62,12577284.029609569
198,32702336.300943793
295,8406000.000000002
325,8406000.000000002
2,6, 1, 6, 0, 7, 0.00,60.00,Friday
11,166477408.7203259
62,50309136.11843827
198,67291072.60188759
295,16812000.000000005
325,16812000.000000005
2,6, 1, 6, 0, 8, 0.00,60.00,Friday
11,142038808.7203259
62,50309136.11843827
198,67291072.60188759
295,16812000.000000005
325,16812000.000000005
2,6, 1, 6, 0, 9, 0.00,60.00,Friday
11,242117417.34939898
62,125772840.29609567
198,116344577.05330327
295,29420999.999999998
325,29420999.999999998
2,6, 1, 6, 0,10, 0.00,60.00,Friday
11,375438025.8872193
62,226391112.5329722
198,149046913.35424707
295,37827000.0
325,37827000.0
2,6, 1, 6, 0,11, 0.00,60.00,Friday
11,375438025.8872193
62,226391112.5329722
198,149046913.35424707
295,37827000.0
325,37827000.0
2,6, 1, 6, 0,12, 0.00,60.00,Friday
11,375438025.8872193
62,226391112.5329722
198,149046913.35424707
295,37827000.0
325,37827000.0
2,6, 1, 6, 0,13, 0.00,60.00,Friday
11,375438025.8872193
62,226391112.5329722
198,149046913.35424707
295,37827000.0
325,37827000.0
2,6, 1, 6, 0,14, 0.00,60.00,Friday
11,375438025.8872193
62,226391112.5329722
198,149046913.35424707
295,37827000.0
325,37827000.0
2,6, 1, 6, 0,15, 0.00,60.00,Friday
11,375438025.8872193
62,226391112.5329722
198,149046913.35424707
295,37827000.0
325,37827000.0
2,6, 1, 6, 0,16, 0.00,60.00,Friday
11,375438025.8872193
62,226391112.5329722
198,149046913.35424707
295,37827000.0
325,37827000.0
2,6, 1, 6, 0,17, 0.00,60.00,Friday
11,375438025.8872193
62,226391112.5329722
198,149046913.35424707
295,37827000.0
325,37827000.0
2,6, 1, 6, 0,18, 0.00,60.00,Friday
11,424315225.8872193
62,226391112.5329722
198,149046913.35424707
295,37827000.0
325,37827000.0
2,6, 1, 6, 0,19, 0.00,60.00,Friday
11,332500353.55909
62,150927408.3553148
198,132695745.20377517
295,33624000.00000001
325,33624000.00000001
2,6, 1, 6, 0,20, 0.00,60.00,Friday
11,332500353.55909
62,150927408.3553148
198,132695745.20377517
295,33624000.00000001
325,33624000.00000001
2,6, 1, 6, 0,21, 0.00,60.00,Friday
11,290994617.349399
62,125772840.29609567
198,116344577.05330327
295,29420999.999999998
325,29420999.999999998
2,6, 1, 6, 0,22, 0.00,60.00,Friday
11,166477408.7203259
62,50309136.11843827
198,67291072.60188759
295,16812000.000000005
325,16812000.000000005
2,6, 1, 6, 0,23, 0.00,60.00,Friday
11,94156820.33055339
62,12577284.029609569
198,32702336.300943793
295,8406000.000000002
325,8406000.000000002
2,6, 1, 6, 0,24, 0.00,60.00,Friday
11,94156820.33055339
62,12577284.029609569
198,32702336.300943793
295,8406000.000000002
325,8406000.000000002
2,7, 1, 7, 0, 1, 0.00,60.00,Saturday
11,85981236.2553174
62,12577284.029609569
198,24526752.225707845
295,6304500.0
325,6304500.0
2,7, 1, 7, 0, 2, 0.00,60.00,Saturday
11,85981236.2553174
62,12577284.029609569
198,24526752.225707845
295,6304500.0
325,6304500.0
2,7, 1, 7, 0, 3, 0.00,60.00,Saturday
11,85981236.2553174
62,12577284.029609569
198,24526752.225707845
295,6304500.0
325,6304500.0
2,7, 1, 7, 0, 4, 0.00,60.00,Saturday
11,85981236.2553174
62,12577284.029609569
198,24526752.225707845
295,6304500.0
325,6304500.0
2,7, 1, 7, 0, 5, 0.00,60.00,Saturday
11,85981236.2553174
62,12577284.029609569
198,24526752.225707845
295,6304500.0
325,6304500.0
2,7, 1, 7, 0, 6, 0.00,60.00,Saturday
11,85981236.2553174
62,12577284.029609569
198,24526752.225707845
295,6304500.0
325,6304500.0
2,7, 1, 7, 0, 7, 0.00,60.00,Saturday
11,124971672.51063481
62,25154568.059219138
198,50939904.45141569
295,12609000.0
325,12609000.0
2,7, 1, 7, 0, 8, 0.00,60.00,Saturday
11,100533072.51063483
62,25154568.059219138
198,50939904.45141569
295,12609000.0
325,12609000.0
2,7, 1, 7, 0, 9, 0.00,60.00,Saturday
11,159105944.93001689
62,75463704.1776574
198,83642240.7523595
295,21015000.0
325,21015000.0
2,7, 1, 7, 0,10, 0.00,60.00,Saturday
11,283623153.55909
62,150927408.3553148
198,132695745.20377517
295,33624000.00000001
325,33624000.00000001
2,7, 1, 7, 0,11, 0.00,60.00,Saturday
11,375438025.8872193
62,226391112.5329722
198,149046913.35424707
295,37827000.0
325,37827000.0
2,7, 1, 7, 0,12, 0.00,60.00,Saturday
11,375438025.8872193
62,226391112.5329722
198,149046913.35424707
295,37827000.0
325,37827000.0
2,7, 1, 7, 0,13, 0.00,60.00,Saturday
11,375438025.8872193
62,226391112.5329722
198,149046913.35424707
295,37827000.0
325,37827000.0
2,7, 1, 7, 0,14, 0.00,60.00,Saturday
11,375438025.8872193
62,226391112.5329722
198,149046913.35424707
295,37827000.0
325,37827000.0
2,7, 1, 7, 0,15, 0.00,60.00,Saturday
11,375438025.8872193
62,226391112.5329722
198,149046913.35424707
295,37827000.0
325,37827000.0
2,7, 1, 7, 0,16, 0.00,60.00,Saturday
11,375438025.8872193
62,226391112.5329722
198,149046913.35424707
295,37827000.0
325,37827000.0
2,7, 1, 7, 0,17, 0.00,60.00,Saturday
11,375438025.8872193
62,226391112.5329722
198,149046913.35424707
295,37827000.0
325,37827000.0
2,7, 1, 7, 0,18, 0.00,60.00,Saturday
11,424315225.8872193
62,226391112.5329722
198,149046913.35424707
295,37827000.0
325,37827000.0
2,7, 1, 7, 0,19, 0.00,60.00,Saturday
11,290994617.349399
62,125772840.29609567
198,116344577.05330327
295,29420999.999999998
325,29420999.999999998
2,7, 1, 7, 0,20, 0.00,60.00,Saturday
11,207983144.93001689
62,75463704.1776574
198,83642240.7523595
295,21015000.0
325,21015000.0
2,7, 1, 7, 0,21, 0.00,60.00,Saturday
11,207983144.93001689
62,75463704.1776574
198,83642240.7523595
295,21015000.0
325,21015000.0
2,7, 1, 7, 0,22, 0.00,60.00,Saturday
11,124971672.51063481
62,25154568.059219138
198,50939904.45141569
295,12609000.0
325,12609000.0
2,7, 1, 7, 0,23, 0.00,60.00,Saturday
11,85981236.2553174
62,12577284.029609569
198,24526752.225707845
295,6304500.0
325,6304500.0
2,7, 1, 7, 0,24, 0.00,60.00,Saturday
11,85981236.2553174
62,12577284.029609569
198,24526752.225707845
295,6304500.0
325,6304500.0
2,8, 1, 8, 0, 1, 0.00,60.00,Sunday
11,85981236.2553174
62,12577284.029609569
198,24526752.225707845
295,6304500.0
325,6304500.0
2,8, 1, 8, 0, 2, 0.00,60.00,Sunday
11,85981236.2553174
62,12577284.029609569
198,24526752.225707845
295,6304500.0
325,6304500.0
2,8, 1, 8, 0, 3, 0.00,60.00,Sunday
11,85981236.2553174
62,12577284.029609569
198,24526752.225707845
295,6304500.0
325,6304500.0
2,8, 1, 8, 0, 4, 0.00,60.00,Sunday
11,85981236.2553174
62,12577284.029609569
198,24526752.225707845
295,6304500.0
325,6304500.0
2,8, 1, 8, 0, 5, 0.00,60.00,Sunday
11,85981236.2553174
62,12577284.029609569
198,24526752.225707845
295,6304500.0
325,6304500.0
2,8, 1, 8, 0, 6, 0.00,60.00,Sunday
11,85981236.2553174
62,12577284.029609569
198,24526752.225707845
295,6304500.0
325,6304500.0
2,8, 1, 8, 0, 7, 0.00,60.00,Sunday
11,124971672.51063481
62,25154568.059219138
198,50939904.45141569
295,12609000.0
325,12609000.0
2,8, 1, 8, 0, 8, 0.00,60.00,Sunday
11,100533072.51063483
62,25154568.059219138
198,50939904.45141569
295,12609000.0
325,12609000.0
2,8, 1, 8, 0, 9, 0.00,60.00,Sunday
11,76094472.51063483
62,25154568.059219138
198,50939904.45141569
295,12609000.0
325,12609000.0
2,8, 1, 8, 0,10, 0.00,60.00,Sunday
11,76094472.51063483
62,25154568.059219138
198,50939904.45141569
295,12609000.0
325,12609000.0
2,8, 1, 8, 0,11, 0.00,60.00,Sunday
11,200611681.1397079
62,100618272.23687655
198,99993408.90283138
295,25218000.0
325,25218000.0
2,8, 1, 8, 0,12, 0.00,60.00,Sunday
11,200611681.1397079
62,100618272.23687655
198,99993408.90283138
295,25218000.0
325,25218000.0
2,8, 1, 8, 0,13, 0.00,60.00,Sunday
11,283623153.55909
62,150927408.3553148
198,132695745.20377517
295,33624000.00000001
325,33624000.00000001
2,8, 1, 8, 0,14, 0.00,60.00,Sunday
11,283623153.55909
62,150927408.3553148
198,132695745.20377517
295,33624000.00000001
325,33624000.00000001
2,8, 1, 8, 0,15, 0.00,60.00,Sunday
11,283623153.55909
62,150927408.3553148
198,132695745.20377517
295,33624000.00000001
325,33624000.00000001
2,8, 1, 8, 0,16, 0.00,60.00,Sunday
11,283623153.55909
62,150927408.3553148
198,132695745.20377517
295,33624000.00000001
325,33624000.00000001
2,8, 1, 8, 0,17, 0.00,60.00,Sunday
11,283623153.55909
62,150927408.3553148
198,132695745.20377517
295,33624000.00000001
325,33624000.00000001
2,8, 1, 8, 0,18, 0.00,60.00,Sunday
11,249488881.1397079
62,100618272.23687655
198,99993408.90283138
295,25218000.0
325,25218000.0
2,8, 1, 8, 0,19, 0.00,60.00,Sunday
11,166477408.7203259
62,50309136.11843827
198,67291072.60188759
295,16812000.000000005
325,16812000.000000005
2,8, 1, 8, 0,20, 0.00,60.00,Sunday
11,166477408.7203259
62,50309136.11843827
198,67291072.60188759
295,16812000.000000005
325,16812000.000000005
2,8, 1, 8, 0,21, 0.00,60.00,Sunday
11,166477408.7203259
62,50309136.11843827
198,67291072.60188759
295,16812000.000000005
325,16812000.000000005
2,8, 1, 8, 0,22, 0.00,60.00,Sunday
11,166477408.7203259
62,50309136.11843827
198,67291072.60188759
295,16812000.000000005
325,16812000.000000005
2,8, 1, 8, 0,23, 0.00,60.00,Sunday
11,85981236.2553174
62,12577284.029609569
198,24526752.225707845
295,6304500.0
325,6304500.0
2,8, 1, 8, 0,24, 0.00,60.00,Sunday
11,85981236.2553174
62,12577284.029609569
198,24526752.225707845
295,6304500.0
325,6304500.0
2,9, 1, 9, 0, 1, 0.00,60.00,Monday
11,94156820.33055339
62,12577284.029609569
198,32702336.300943793
295,8406000.000000002
325,8406000.000000002
2,9, 1, 9, 0, 2, 0.00,60.00,Monday
11,94156820.33055339
62,12577284.029609569
198,32702336.300943793
295,8406000.000000002
325,8406000.000000002
2,9, 1, 9, 0, 3, 0.00,60.00,Monday
11,94156820.33055339
62,12577284.029609569
198,32702336.300943793
295,8406000.000000002
325,8406000.000000002
2,9, 1, 9, 0, 4, 0.00,60.00,Monday
11,94156820.33055339
62,12577284.029609569
198,32702336.300943793
295,8406000.000000002
325,8406000.000000002
2,9, 1, 9, 0, 5, 0.00,60.00,Monday
11,94156820.33055339
62,12577284.029609569
198,32702336.300943793
295,8406000.000000002
325,8406000.000000002
2,9, 1, 9, 0, 6, 0.00,60.00,Monday
11,94156820.33055339
62,12577284.029609569
198,32702336.300943793
295,8406000.000000002
325,8406000.000000002
2,9, 1, 9, 0, 7, 0.00,60.00,Monday
11,166477408.7203259
62,50309136.11843827
198,67291072.60188759
295,16812000.000000005
325,16812000.000000005