Program Version,EnergyPlus, Version 8.6.0-198c6a3cff, YMD=2016.10.18 16:27
1,5,Environment Title[],Latitude[deg],Longitude[deg],Time Zone[],Elevation[m]
2,6,Day of Simulation[],Month[],Day of Month[],DST Indicator[1=yes 0=no],Hour[],StartMinute[],EndMinute[],DayType
3,3,Cumulative Day of Simulation[],Month[],Day of Month[],DST Indicator[1=yes 0=no],DayType  ! When Daily Report Variables Requested
4,2,Cumulative Days of Simulation[],Month[]  ! When Monthly Report Variables Requested
5,1,Cumulative Days of Simulation[] ! When Run Period Report Variables Requested
6,1,Environment,Site Outdoor Air Drybulb Temperature [C] !Hourly
7,1,Environment,Site Outdoor Air Humidity Ratio [kgWater/kgDryAir] !Hourly
8,1,Environment,Site Outdoor Air Relative Humidity [%] !Hourly
375,1,BAKERY,Zone Mean Air Temperature [C] !Hourly
376,1,DELI,Zone Mean Air Temperature [C] !Hourly
377,1,DRYSTORAGE,Zone Mean Air Temperature [C] !Hourly
378,1,OFFICE,Zone Mean Air Temperature [C] !Hourly
379,1,PRODUCE,Zone Mean Air Temperature [C] !Hourly
380,1,SALES,Zone Mean Air Temperature [C] !Hourly
11,1,Electricity:Facility [J] !Hourly
62,1,InteriorLights:Electricity [J] !Hourly
198,1,InteriorEquipment:Electricity [J] !Hourly
295,1,Gas:Facility [J] !Hourly
325,1,InteriorEquipment:Gas [J] !Hourly
13,9,Electricity:Facility [J] !Monthly  [Value,Min,Day,Hour,Minute,Max,Day,Hour,Minute]
297,9,Gas:Facility [J] !Monthly  [Value,Min,Day,Hour,Minute,Max,Day,Hour,Minute]
737,9,CO2:Facility [kg] !Monthly  [Value,Min,Day,Hour,Minute,Max,Day,Hour,Minute]
758,9,CO:Facility [kg] !Monthly  [Value,Min,Day,Hour,Minute,Max,Day,Hour,Minute]
779,9,CH4:Facility [kg] !Monthly  [Value,Min,Day,Hour,Minute,Max,Day,Hour,Minute]
800,9,NOx:Facility [kg] !Monthly  [Value,Min,Day,Hour,Minute,Max,Day,Hour,Minute]
821,9,N2O:Facility [kg] !Monthly  [Value,Min,Day,Hour,Minute,Max,Day,Hour,Minute]
842,9,SO2:Facility [kg] !Monthly  [Value,Min,Day,Hour,Minute,Max,Day,Hour,Minute]
863,9,PM:Facility [kg] !Monthly  [Value,Min,Day,Hour,Minute,Max,Day,Hour,Minute]
884,9,PM10:Facility [kg] !Monthly  [Value,Min,Day,Hour,Minute,Max,Day,Hour,Minute]
905,9,PM2.5:Facility [kg] !Monthly  [Value,Min,Day,Hour,Minute,Max,Day,Hour,Minute]
926,9,NH3:Facility [kg] !Monthly  [Value,Min,Day,Hour,Minute,Max,Day,Hour,Minute]
947,9,NMVOC:Facility [kg] !Monthly  [Value,Min,Day,Hour,Minute,Max,Day,Hour,Minute]
968,9,Hg:Facility [kg] !Monthly  [Value,Min,Day,Hour,Minute,Max,Day,Hour,Minute]
989,9,Pb:Facility [kg] !Monthly  [Value,Min,Day,Hour,Minute,Max,Day,Hour,Minute]
1010,9,WaterEnvironmentalFactors:Facility [L] !Monthly  [Value,Min,Day,Hour,Minute,Max,Day,Hour,Minute]
1031,9,Nuclear High:Facility [kg] !Monthly  [Value,Min,Day,Hour,Minute,Max,Day,Hour,Minute]
1052,9,Nuclear Low:Facility [m3] !Monthly  [Value,Min,Day,Hour,Minute,Max,Day,Hour,Minute]
1282,9,Carbon Equivalent:Facility [kg] !Monthly  [Value,Min,Day,Hour,Minute,Max,Day,Hour,Minute]
End of Data Dictionary
1,San Francisco Intl Ap CA USA TMY3 WMO#=724940,  37.62,-122.40,  -8.00,   2.00
2,1, 1, 1, 0, 1, 0.00,60.00,Holiday
6,7.0125
7,0.005356996142061476
8,87.0
375,23.912428646569955
376,23.483583979852125
377,19.28467849610345
378,19.991367192773685
379,20.040668092146395
380,20.07373166130511
11,85981236.2553174
62,12577284.029609569
198,24526752.225707845
295,6304500.0
325,6304500.0
2,1, 1, 1, 0, 2, 0.00,60.00,Holiday
6,7.2
7,0.005617522683727548
8,90.0
375,23.528015498622488
376,23.11885125919348
377,19.133291413316284
378,19.77642425053694
379,19.854834609895627
380,19.863086385108674
11,85981236.2553174
62,12577284.029609569
198,24526752.225707845
295,6304500.0
325,6304500.0
2,1, 1, 1, 0, 3, 0.00,60.00,Holiday
6,6.8875
7,0.0054578789036708089
8,89.375
375,23.20876690322769
376,22.81871492888584
377,19.002000641720625
378,19.585320028705934
379,19.688021246344193
380,19.66601485635456
11,85981236.2553174
62,12577284.029609569
198,24526752.225707845
295,6304500.0
325,6304500.0
2,1, 1, 1, 0, 4, 0.00,60.00,Holiday
6,6.324999999999999
7,0.005371842243415733
8,91.5
375,22.93353133784077
376,22.561707728204135
377,18.886929088055856
378,19.417148703658456
379,19.536292795320475
380,19.48472221128533
11,85981236.2553174
62,12577284.029609569
198,24526752.225707845
295,6304500.0
325,6304500.0
2,1, 1, 1, 0, 5, 0.00,60.00,Holiday
6,5.0375
7,0.005126632424801476
8,95.5
375,22.693013461908899
376,22.338275405394229
377,18.787538416214127
378,19.273951087203146
379,19.407556921948083
380,19.32569769241046
11,85981236.2553174
62,12577284.029609569
198,24526752.225707845
295,6304500.0
325,6304500.0
2,1, 1, 1, 0, 6, 0.00,60.00,Holiday
6,4.4
7,0.004978526918594479
8,97.0
375,22.474256315312844
376,22.13716867020761
377,18.69717948229414
378,19.145241889416405
379,19.29429398330322
380,19.188171615091368
11,85981236.2553174
62,12577284.029609569
198,24526752.225707845
295,6304500.0
325,6304500.0
2,1, 1, 1, 0, 7, 0.00,60.00,Holiday
6,5.4624999999999999
7,0.0050845357700045798
8,92.0
375,23.114045849938234
376,22.796262541132266
377,18.742847239379626
378,19.169878759732826
379,19.364900251104254
380,19.265840474518887
11,124971672.51063481
62,25154568.059219138
198,50939904.45141569
295,12609000.0
325,12609000.0
2,1, 1, 1, 0, 8, 0.00,60.00,Holiday
6,5.4125
7,0.004799756415936597
8,87.125
375,23.322326881701089
376,23.021490693836957
377,18.735740913816657
378,19.15984475319135
379,19.382606189024423
380,19.32384461333894
11,88313772.51063483
62,25154568.059219138
198,50939904.45141569
295,12609000.0
325,12609000.0
2,1, 1, 1, 0, 9, 0.00,60.00,Holiday
6,6.750000000000001
7,0.005045334647567734
8,83.5
375,23.34390489125596
376,23.057440653377208
377,18.701115794184405
378,19.115607185594138
379,19.392583168886408
380,19.559875376301407
11,76094472.51063483
62,25154568.059219138
198,50939904.45141569
295,12609000.0
325,12609000.0
2,1, 1, 1, 0,10, 0.00,60.00,Holiday
6,8.487499999999999
7,0.005752863884256169
8,84.5
375,23.342745250190846
376,23.07033427430821
377,18.681670183947426
378,19.06592670210192
379,19.38832742693624
380,19.91550467437372
11,76094472.51063483
62,25154568.059219138
198,50939904.45141569
295,12609000.0
325,12609000.0
2,1, 1, 1, 0,11, 0.00,60.00,Holiday
6,9.2125
7,0.006150359207120861
8,86.0
375,24.90835051152725
376,24.6532043403744
377,18.989060356969739
378,19.37284559248978
379,19.77937841924913
380,20.66860936402357
11,200611681.1397079
62,100618272.23687655
198,99993408.90283138
295,25218000.0
325,25218000.0
2,1, 1, 1, 0,12, 0.00,60.00,Holiday
6,9.775
7,0.006252517473091699
8,84.125
375,25.863797483257839
376,25.610838051355246
377,19.30125723035237
378,19.739937824503337
379,20.161044227280063
380,21.30995208010534
11,200611681.1397079
62,100618272.23687655
198,99993408.90283138
295,25218000.0
325,25218000.0
2,1, 1, 1, 0,13, 0.00,60.00,Holiday
6,10.375
7,0.006426646745839731
8,83.0
375,27.41697805312006
376,27.15694852173989
377,19.791817448194366
378,20.29687418756703
379,20.74622693404565
380,22.05317395412868
11,283623153.55909
62,150927408.3553148
198,132695745.20377517
295,33624000.00000001
325,33624000.00000001
2,1, 1, 1, 0,14, 0.00,60.00,Holiday
6,10.9125
7,0.006667607255646017
8,83.0
375,28.503259086038619
376,28.1971826891228
377,20.23831452598513
378,20.827931451066875
379,21.252116255300103
380,22.68561100802892
11,283623153.55909
62,150927408.3553148
198,132695745.20377517
295,33624000.00000001
325,33624000.00000001
2,1, 1, 1, 0,15, 0.00,60.00,Holiday
6,12.85
7,0.005830950783689915
8,64.25
375,29.257723988894737
376,28.859604049193629
377,20.564144465926547
378,21.23724940883041
379,21.59809240690508
380,23.11144128182047
11,283623153.55909
62,150927408.3553148
198,132695745.20377517
295,33624000.00000001
325,33624000.00000001
2,1, 1, 1, 0,16, 0.00,60.00,Holiday
6,13.9
7,0.004804015796163528
8,49.25
375,29.874185487159669
376,29.375964776939836
377,20.835726067805184
378,21.58338717684911
379,21.885981822422616
380,23.287901263237225
11,283623153.55909
62,150927408.3553148
198,132695745.20377517
295,33624000.00000001
325,33624000.00000001
2,1, 1, 1, 0,17, 0.00,60.00,Holiday
6,12.15
7,0.005533839557231641
8,63.875
375,30.283715462635209
376,29.770827698846668
377,21.045085275072155
378,21.870348090828697
379,22.121272782762085
380,23.15840143635104
11,295842453.55909
62,150927408.3553148
198,132695745.20377517
295,33624000.00000001
325,33624000.00000001
2,1, 1, 1, 0,18, 0.00,60.00,Holiday
6,11.1
7,0.005758531170682781
8,70.875
375,29.531967434735785
376,29.050398878018507
377,20.955127259854437
378,21.839169280924275
379,21.96789083993974
380,22.727091318667246
11,249488881.1397079
62,100618272.23687655
198,99993408.90283138
295,25218000.0
325,25218000.0
2,1, 1, 1, 0,19, 0.00,60.00,Holiday
6,10.7875
7,0.0049399242035018729
8,62.125
375,28.200601759983149
376,27.72022465270691
377,20.677172385502585
378,21.573859084252818
379,21.602748497657197
380,22.18242770266933
11,166477408.7203259
62,50309136.11843827
198,67291072.60188759
295,16812000.000000005
325,16812000.000000005
2,1, 1, 1, 0,20, 0.00,60.00,Holiday
6,10.6
7,0.004694708166521939
8,59.875
375,27.50526699478732
376,27.0246396300457
377,20.45854423114583
378,21.331150016994149
379,21.342546975943749
380,21.781927710644955
11,166477408.7203259
62,50309136.11843827
198,67291072.60188759
295,16812000.000000005
325,16812000.000000005
2,1, 1, 1, 0,21, 0.00,60.00,Holiday
6,9.5375
7,0.004679676718860237
8,64.125
375,27.133113622349318
376,26.655136467622744
377,20.29518158479732
378,21.1441682097649
379,21.170395763681606
380,21.50749479190747
11,166477408.7203259
62,50309136.11843827
198,67291072.60188759
295,16812000.000000005
325,16812000.000000005
2,1, 1, 1, 0,22, 0.00,60.00,Holiday
6,9.2125
7,0.004488106112623624
8,62.875
375,26.85676266540645
376,26.384045776250895
377,20.14640729793759
378,20.98133269158067
379,21.016599959479767
380,21.274340891916386
11,166477408.7203259
62,50309136.11843827
198,67291072.60188759
295,16812000.000000005
325,16812000.000000005
2,1, 1, 1, 0,23, 0.00,60.00,Holiday
6,8.4
7,0.004750997581379478
8,70.375
375,25.349752231116555
376,24.886530746882728
377,19.78840637281261
378,20.606784900817364
379,20.616398971983814
380,20.795295170183189
11,85981236.2553174
62,12577284.029609569
198,24526752.225707845
295,6304500.0
325,6304500.0
2,1, 1, 1, 0,24, 0.00,60.00,Holiday
6,7.1125
7,0.0049383871731073889
8,79.75
375,24.418288406944716
376,23.97023444444695
377,19.476958474744799
378,20.25023204641955
379,20.2670353346017
380,20.347954862900584
11,85981236.2553174
62,12577284.029609569
198,24526752.225707845
295,6304500.0
325,6304500.0
2,2, 1, 2, 0, 1, 0.00,60.00,Monday
6,8.075000000000001
7,0.005475196465218003
8,82.625
375,24.18774891017364
376,23.75900762720304
377,19.316397601174928
378,20.024633316174677
379,20.065240790184757
380,20.10469152196931
11,94156820.33055339
62,12577284.029609569
198,32702336.300943793
295,8406000.000000002
325,8406000.000000002
2,2, 1, 2, 0, 2, 0.00,60.00,Monday
6,7.15
7,0.005009727421725457
8,80.5
375,23.9229566572292
376,23.51137006548519
377,19.1806070846872
378,19.83728018920977
379,19.89446524537079
380,19.90748868257584
11,94156820.33055339
62,12577284.029609569
198,32702336.300943793
295,8406000.000000002
325,8406000.000000002
2,2, 1, 2, 0, 3, 0.00,60.00,Monday
6,5.7875
7,0.004675354543508736
8,82.75
375,23.66473053716955
376,23.269194503269675
377,19.059335925247014
378,19.669964480404518
379,19.738896127772628
380,19.709659108180337
11,94156820.33055339
62,12577284.029609569
198,32702336.300943793
295,8406000.000000002
325,8406000.000000002
2,2, 1, 2, 0, 4, 0.00,60.00,Monday
6,4.5375
7,0.004437801040608031
8,85.625
375,23.42430394333624
376,23.04563055925811
377,18.9470773079631
378,19.512273286302976
379,19.590823457623804
380,19.524414746877484
11,94156820.33055339
62,12577284.029609569
198,32702336.300943793
295,8406000.000000002
325,8406000.000000002
2,2, 1, 2, 0, 5, 0.00,60.00,Monday
6,4.9624999999999999
7,0.004560828691074217
8,85.375
375,23.194378455597005
376,22.83288712874966
377,18.83552109335667
378,19.36169026329725
379,19.444550990159088
380,19.359659524272439
11,94156820.33055339
62,12577284.029609569
198,32702336.300943793
295,8406000.000000002
325,8406000.000000002
2,2, 1, 2, 0, 6, 0.00,60.00,Monday
6,6.6
7,0.004899742653856721
8,81.875
375,22.975284355273094
376,22.63114129625705
377,18.72528281946899
378,19.217991524875769
379,19.306731454501944
380,19.22448372037957
11,94156820.33055339
62,12577284.029609569
198,32702336.300943793
295,8406000.000000002
325,8406000.000000002
2,2, 1, 2, 0, 7, 0.00,60.00,Monday
6,7.575
7,0.004756559598764103
8,74.375
375,23.86454300075033
376,23.540464463640406
377,18.80892041388759
378,19.292019242681947
379,19.43713584702159
380,19.37010239004516
11,166477408.7203259
62,50309136.11843827
198,67291072.60188759
295,16812000.000000005
325,16812000.000000005
2,2, 1, 2, 0, 8, 0.00,60.00,Monday
6,7.425
7,0.004851254228974194
8,76.625
375,24.243000820486374
376,23.934298392268276
377,18.8460822189276
378,19.344556564232837
379,19.532093395831255
380,19.49683326789608
11,129819508.72032589
62,50309136.11843827
198,67291072.60188759
295,16812000.000000005
325,16812000.000000005
2,2, 1, 2, 0, 9, 0.00,60.00,Monday
6,9.325000000000001
7,0.004752772171430945
8,66.25
375,25.861539437268264
376,25.569446034674699
377,19.13680922635534
378,19.685013520972043
379,19.974373467388113
380,20.171576803141794
11,242117417.34939898
62,125772840.29609567
198,116344577.05330327
295,29420999.999999998
325,29420999.999999998
2,2, 1, 2, 0,10, 0.00,60.00,Monday
6,11.287499999999998
7,0.0046603585787747619
8,56.75
375,27.859928596996196
376,27.580880177531865
377,19.68192585793452
378,20.326867114515446
379,20.81655132668414
380,21.396223478156374
11,375438025.8872193
62,226391112.5329722
198,149046913.35424707
295,37827000.0
325,37827000.0
2,2, 1, 2, 0,11, 0.00,60.00,Monday
6,13.075
7,0.004469841443952153
8,48.5
375,29.03141128951467
376,28.752091969139526
377,20.110068441032668
378,20.83544315548949
379,21.379318364899814
380,22.29821607287873
11,375438025.8872193
62,226391112.5329722
198,149046913.35424707
295,37827000.0
325,37827000.0
2,2, 1, 2, 0,12, 0.00,60.00,Monday
6,13.9
7,0.004473493722661318
8,45.875
375,29.809266694122628
376,29.5253657141277
377,20.475436695019697
378,21.27725731940388
379,21.843794198624559
380,23.09537648286271
11,375438025.8872193
62,226391112.5329722
198,149046913.35424707
295,37827000.0
325,37827000.0
2,2, 1, 2, 0,13, 0.00,60.00,Monday
6,13.9
7,0.0048345182128791369
8,49.5
375,30.445430989853326
376,30.150182026854006
377,20.804558405305479
378,21.657252848169976
379,22.20446922970216
380,23.695893303924707
11,375438025.8872193
62,226391112.5329722
198,149046913.35424707
295,37827000.0
325,37827000.0
2,2, 1, 2, 0,14, 0.00,60.00,Monday
6,13.9
7,0.005110328908652244
8,52.25
375,31.032816104207325
376,30.701621040650715
377,21.120765058935313
378,22.02652028585617
379,22.538994492913248
380,24.028384778638558
11,375438025.8872193
62,226391112.5329722
198,149046913.35424707
295,37827000.0
325,37827000.0
2,2, 1, 2, 0,15, 0.00,60.00,Monday
6,12.837499999999999
7,0.006031426737731418
8,66.125
375,31.596923843793975
376,31.19611281088138
377,21.422392088420957
378,22.38502812998228
379,22.86022796155907
380,24.31985235841858
11,375438025.8872193
62,226391112.5329722
198,149046913.35424707
295,37827000.0
325,37827000.0
2,2, 1, 2, 0,16, 0.00,60.00,Monday
6,12.575
7,0.0059724159939234379
8,66.5
375,32.129196747617687
376,31.641883966078056
377,21.718560846987374
378,22.742210341838534
379,23.209091010226776
380,24.549181425703308
11,375438025.8872193
62,226391112.5329722
198,149046913.35424707
295,37827000.0
325,37827000.0
2,2, 1, 2, 0,17, 0.00,60.00,Monday
6,11.7375
7,0.006065338431835365
8,71.375
375,32.47526308316988
376,31.96966003385797
377,21.911594670839969
378,22.99611433901497
379,23.405840807882819
380,24.413760694300025
11,387657325.8872193
62,226391112.5329722
198,149046913.35424707
295,37827000.0
325,37827000.0
2,2, 1, 2, 0,18, 0.00,60.00,Monday
6,10.7875
7,0.006151925361128163
8,77.0
375,32.65386899507561
376,32.17408401066065
377,21.98630733348251
378,23.133229728777655
379,23.440146601896385
380,24.206968519623304
11,424315225.8872193
62,226391112.5329722
198,149046913.35424707
295,37827000.0
325,37827000.0
2,2, 1, 2, 0,19, 0.00,60.00,Monday
6,11.287499999999998
7,0.005519567865200485
8,67.0
375,32.22156431554958
376,31.736550808883796
377,21.884491719273233
378,23.076773451402898
379,23.274262042535903
380,23.9042709182863
11,332500353.55909
62,150927408.3553148
198,132695745.20377517
295,33624000.00000001
325,33624000.00000001
2,2, 1, 2, 0,20, 0.00,60.00,Monday
6,11.7
7,0.0047940735688823238
8,56.625
375,31.96895165739891
376,31.472114908991409
377,21.71623524069351
378,22.926166160230016
379,23.00183801770491
380,23.52985134630178
11,332500353.55909
62,150927408.3553148
198,132695745.20377517
295,33624000.00000001
325,33624000.00000001
2,2, 1, 2, 0,21, 0.00,60.00,Monday
6,10.6375
7,0.00523885700416523
8,66.5
375,31.36221855790089
376,30.859379793473584
377,21.50925344977467
378,22.73627365699292
379,22.74896613824871
380,23.19069195652206
11,290994617.349399
62,125772840.29609567
198,116344577.05330327
295,29420999.999999998
325,29420999.999999998
2,2, 1, 2, 0,22, 0.00,60.00,Monday
6,9.3125
7,0.005890207916352827
8,81.5
375,29.61184697319379
376,29.109442771030069
377,21.103406243629807
378,22.31649242824114
379,22.282591321306307
380,22.632618359895923
11,166477408.7203259
62,50309136.11843827
198,67291072.60188759
295,16812000.000000005
325,16812000.000000005
2,2, 1, 2, 0,23, 0.00,60.00,Monday
6,9.2125
7,0.005904007685582248
8,82.25
375,27.534414157066064
376,27.041808825279135
377,20.54666810013897
378,21.680184080650855
379,21.548667974918894
380,21.802318886915445
11,94156820.33055339
62,12577284.029609569
198,32702336.300943793
295,8406000.000000002
325,8406000.000000002
2,2, 1, 2, 0,24, 0.00,60.00,Monday
6,9.0875
7,0.005378775918421264
8,75.625
375,26.328275357955776
376,25.854542825419239
377,20.13269282059642
378,21.16651876891727
379,21.015508832339707
380,21.18606042317391
11,94156820.33055339
62,12577284.029609569
198,32702336.300943793
295,8406000.000000002
325,8406000.000000002
2,3, 1, 3, 0, 1, 0.00,60.00,Tuesday
6,9.2125
7,0.0055513360967240029
8,77.375
375,25.644372572667824
376,25.19164497745312
377,19.866164564739937
378,20.814791134757955
379,20.699385345214468
380,20.82336879774458
11,94156820.33055339
62,12577284.029609569
198,32702336.300943793
295,8406000.000000002
325,8406000.000000002
2,3, 1, 3, 0, 2, 0.00,60.00,Tuesday
6,9.775
7,0.00539683188785894
8,72.5
375,25.133190142017495
376,24.70040220336883
377,19.649033052875589
378,20.533883185648724
379,20.449183901365559
380,20.542002938672679
11,94156820.33055339
62,12577284.029609569
198,32702336.300943793
295,8406000.000000002
325,8406000.000000002
2,3, 1, 3, 0, 3, 0.00,60.00,Tuesday
6,11.375
7,0.004842777407172059
8,58.625
375,24.725620230350918
376,24.31232930819065
377,19.47055345620071
378,20.30224770333689
379,20.242608381916843
380,20.32563155700149
11,94156820.33055339
62,12577284.029609569
198,32702336.300943793
295,8406000.000000002
325,8406000.000000002
2,3, 1, 3, 0, 4, 0.00,60.00,Tuesday
6,13.2625
7,0.004312568183418479
8,46.125
375,24.39485055719229
376,24.001004351675165
377,19.338847108344166
378,20.114399332318948
379,20.078219234679034
380,20.172101619377817
11,94156820.33055339
62,12577284.029609569
198,32702336.300943793
295,8406000.000000002
325,8406000.000000002
2,3, 1, 3, 0, 5, 0.00,60.00,Tuesday
6,13.212500000000003
7,0.004442602231124123
8,47.625
375,24.120268526274683
376,23.745736034116989
377,19.24247827455183
378,19.96188719353396
379,19.948509148868796
380,20.04454580760032
11,94156820.33055339
62,12577284.029609569
198,32702336.300943793
295,8406000.000000002
325,8406000.000000002
2,3, 1, 3, 0, 6, 0.00,60.00,Tuesday
6,12.425
7,0.004631249928085125
8,52.25
375,23.8914254507957
376,23.536077108479476
377,19.175517705127903
378,19.8415715491287
379,19.850002603049679
380,19.931115023378959
11,94156820.33055339
62,12577284.029609569
198,32702336.300943793
295,8406000.000000002
325,8406000.000000002
2,3, 1, 3, 0, 7, 0.00,60.00,Tuesday
6,11.5125
7,0.0047336453812547329
8,56.75
375,24.796883809645889
376,24.46295712999401
377,19.327457165322288
378,19.967053511666724
379,20.04655529124064
380,20.121976337129458
11,166477408.7203259
62,50309136.11843827
198,67291072.60188759
295,16812000.000000005
325,16812000.000000005
2,3, 1, 3, 0, 8, 0.00,60.00,Tuesday
6,11.1
7,0.004532629668103172
8,55.875
375,25.17791281126394
376,24.85988659584931
377,19.438829410440559
378,20.07704731676518
379,20.201239546231859
380,20.304738786345749
11,129819508.72032589
62,50309136.11843827
198,67291072.60188759
295,16812000.000000005
325,16812000.000000005
2,3, 1, 3, 0, 9, 0.00,60.00,Tuesday
6,11.474999999999998
7,0.0042761471229897508
8,51.5
375,26.779469794094216
376,26.477949774646129
377,19.787089670005537
378,20.438248363154064
379,20.642297783766808
380,20.93041900330413
11,242117417.34939898
62,125772840.29609567
198,116344577.05330327
295,29420999.999999998
325,29420999.999999998
2,3, 1, 3, 0,10, 0.00,60.00,Tuesday
6,12.7
7,0.004101322762961815
8,45.625
375,28.727333333772849
376,28.438386870999766
377,20.34186707773768
378,21.0643614924287
379,21.444931129981265
380,22.041355506584453
11,375438025.8872193
62,226391112.5329722
198,149046913.35424707
295,37827000.0
325,37827000.0
2,3, 1, 3, 0,11, 0.00,60.00,Tuesday
6,12.6125
7,0.004627105433630447
8,51.75
375,29.83374710859568
376,29.543964159718184
377,20.735395980726325
378,21.543677460119758
379,21.96462575928053
380,22.86805040933109
11,375438025.8872193
62,226391112.5329722
198,149046913.35424707
295,37827000.0
325,37827000.0
2,3, 1, 3, 0,12, 0.00,60.00,Tuesday
6,13.95
7,0.0044486889445521479
8,45.75
375,30.535132491055767
376,30.240778400746554
377,21.056064811468468
378,21.945747664801155
379,22.380216819479533
380,23.464263374214437
11,375438025.8872193
62,226391112.5329722
198,149046913.35424707
295,37827000.0
325,37827000.0
2,3, 1, 3, 0,13, 0.00,60.00,Tuesday
6,15.375000000000002
7,0.004041898175221352
8,37.75
375,31.091553115256436
376,30.78671604376978
377,21.3311364805811
378,22.278197595396479
379,22.686278084993249
380,23.985248876221548
11,375438025.8872193
62,226391112.5329722
198,149046913.35424707
295,37827000.0
325,37827000.0
2,3, 1, 3, 0,14, 0.00,60.00,Tuesday
6,15.912500000000002
7,0.0037529273880393539
8,33.875
375,31.606707798790106
376,31.26616168437006
377,21.594876708310389
378,22.59253539091891
379,22.964947139813128
380,24.374973817007758
11,375438025.8872193
62,226391112.5329722
198,149046913.35424707
295,37827000.0
325,37827000.0
2,3, 1, 3, 0,15, 0.00,60.00,Tuesday
6,16.1
7,0.0035859524484247635
8,32.0
375,32.091556941259067
376,31.69573816670198
377,21.849751404520768
378,22.89823252779643
379,23.23491076777184
380,24.588886137251316
11,375438025.8872193
62,226391112.5329722
198,149046913.35424707
295,37827000.0
325,37827000.0
2,3, 1, 3, 0,16, 0.00,60.00,Tuesday
6,14.725
7,0.004233605451527424
8,41.375
375,32.528870449643459
376,32.083808267437479
377,22.106818511985048
378,23.213641322011385
379,23.542508056920985
380,24.730503014572478
11,375438025.8872193
62,226391112.5329722
198,149046913.35424707
295,37827000.0
325,37827000.0
2,3, 1, 3, 0,17, 0.00,60.00,Tuesday
6,13.9
7,0.004147831001916542
8,42.625
375,32.830449048743428
376,32.3729153828849
377,22.276401971893614
378,23.43930805010404
379,23.7140174695676
380,24.61494705469845
11,387657325.8872193
62,226391112.5329722
198,149046913.35424707
295,37827000.0
325,37827000.0
2,3, 1, 3, 0,18, 0.00,60.00,Tuesday
6,13.212500000000003
7,0.004009867128298459
8,43.125
375,33.005483986614219
376,32.55406318068716
377,22.339125888734878
378,23.55742225981329
379,23.730792615374665
380,24.439504846593026
11,424315225.8872193
62,226391112.5329722
198,149046913.35424707
295,37827000.0
325,37827000.0
2,3, 1, 3, 0,19, 0.00,60.00,Tuesday
6,12.425
7,0.003973242292630506
8,45.0
375,32.55825886445731
376,32.09573081935993
377,22.227609885593595
378,23.48627969635194
379,23.54856303888791
380,24.1243823086923
11,332500353.55909
62,150927408.3553148
198,132695745.20377517
295,33624000.00000001
325,33624000.00000001
2,3, 1, 3, 0,20, 0.00,60.00,Tuesday
6,11.2
7,0.004569862382691681
8,56.25
375,32.290838182788778
376,31.81509084182113
377,22.051762312306633
378,23.325481335796846
379,23.26255431800353
380,23.735242814355528
11,332500353.55909
62,150927408.3553148
198,132695745.20377517
295,33624000.00000001
325,33624000.00000001
2,3, 1, 3, 0,21, 0.00,60.00,Tuesday
6,10.225
7,0.004473031230905401
8,58.625
375,31.671698408595714
376,31.189415625971237
377,21.840783956745658
378,23.129410714707164
379,23.00063600296108
380,23.38923761093141
11,290994617.349399
62,125772840.29609567
198,116344577.05330327
295,29420999.999999998
325,29420999.999999998
2,3, 1, 3, 0,22, 0.00,60.00,Tuesday
6,9.3125
7,0.005489845533324833
8,76.625
375,29.908181289966927
376,29.425687007949255
377,21.429920942688584
378,22.70235073196911
379,22.525158094424165
380,22.830616029369346
11,166477408.7203259
62,50309136.11843827
198,67291072.60188759
295,16812000.000000005
325,16812000.000000005
2,3, 1, 3, 0,23, 0.00,60.00,Tuesday
6,8.9
7,0.006220326577768474
8,89.0
375,27.815753797625207
376,27.34244055931147
377,20.866334405156054
378,22.05663855390051
379,21.779543698298246
380,21.9890313189171
11,94156820.33055339
62,12577284.029609569
198,32702336.300943793
295,8406000.000000002
325,8406000.000000002
2,3, 1, 3, 0,24, 0.00,60.00,Tuesday
6,8.9
7,0.006084273914388348
8,87.125
375,26.592162044503078
376,26.137731220274654
377,20.44616890363747
378,21.533584038256078
379,21.235285206802659
380,21.35749201289822
11,94156820.33055339
62,12577284.029609569
198,32702336.300943793
295,8406000.000000002
325,8406000.000000002
2,4, 1, 4, 0, 1, 0.00,60.00,Wednesday
6,8.525000000000003
7,0.0058511868066449539
8,86.0
375,25.90184789676208
376,25.465240095740858
377,20.180572497861129
378,21.179837426884043
379,20.919217177317536
380,20.997932647841148
11,94156820.33055339
62,12577284.029609569
198,32702336.300943793
295,8406000.000000002
325,8406000.000000002
2,4, 1, 4, 0, 2, 0.00,60.00,Wednesday
6,7.987500000000001
7,0.005762929098017261
8,87.875
375,25.39359759468586
376,24.97824259135296
377,19.975845799449915
378,20.90464916254256
379,20.67909988381658
380,20.725810370650565
11,94156820.33055339
62,12577284.029609569
198,32702336.300943793
295,8406000.000000002
325,8406000.000000002
2,4, 1, 4, 0, 3, 0.00,60.00,Wednesday
6,8.1125
7,0.005930209282593757
8,89.625
375,24.983223436334659
376,24.590236563550364
377,19.80258991733385
378,20.673421195324793
379,20.476832999843123
380,20.492647345845975
11,94156820.33055339
62,12577284.029609569
198,32702336.300943793
295,8406000.000000002
325,8406000.000000002
2,4, 1, 4, 0, 4, 0.00,60.00,Wednesday
6,6.924999999999999
7,0.00560421680008755
8,91.875
375,24.62606744135442
376,24.25298919667228
377,19.64009375422222
378,20.463672076653717
379,20.289674758084865
380,20.272608143353044
11,94156820.33055339
62,12577284.029609569
198,32702336.300943793
295,8406000.000000002
325,8406000.000000002
2,4, 1, 4, 0, 5, 0.00,60.00,Wednesday
6,5.0375
7,0.0049737043336480928
8,93.0
375,24.305258726747284
376,23.951355860370926
377,19.485555119518606
378,20.26931560291328
379,20.113509404622087
380,20.04999364890873
11,94156820.33055339
62,12577284.029609569
198,32702336.300943793
295,8406000.000000002
325,8406000.000000002
2,4, 1, 4, 0, 6, 0.00,60.00,Wednesday
6,5.4624999999999999
7,0.0051242420046956
8,93.0
375,24.010799970585468
376,23.67555412831401
377,19.34459721578286
378,20.08571408936616
379,19.945564236743626
380,19.85398754019925
11,94156820.33055339
62,12577284.029609569
198,32702336.300943793
295,8406000.000000002
325,8406000.000000002
2,4, 1, 4, 0, 7, 0.00,60.00,Wednesday
6,5.4125
7,0.0052044534561165559
8,94.875
375,24.83310990742249
376,24.518551858650633
377,19.403074070391424
378,20.120478884679529
379,20.04259161062536
380,19.953966175544996
11,166477408.7203259
62,50309136.11843827
198,67291072.60188759
295,16812000.000000005
325,16812000.000000005
2,4, 1, 4, 0, 8, 0.00,60.00,Wednesday
6,6.062499999999999
7,0.005108289202470076
8,89.125
375,25.12388422151397
376,24.824402198785309
377,19.398891361038019
378,20.120606658056585
379,20.07970874375536
380,20.016277161938807
11,142038808.7203259
62,50309136.11843827
198,67291072.60188759
295,16812000.000000005
325,16812000.000000005
2,4, 1, 4, 0, 9, 0.00,60.00,Wednesday
6,7.7
7,0.005375362262288701
8,83.75
375,26.639458292997924
376,26.35588312976665
377,19.644133386885107
378,20.384784768928136
379,20.416782266029118
380,20.51528712449453
11,242117417.34939898
62,125772840.29609567
198,116344577.05330327
295,29420999.999999998
325,29420999.999999998
2,4, 1, 4, 0,10, 0.00,60.00,Wednesday
6,8.675
7,0.005431473293741329
8,79.25
375,28.51357938258699
376,28.242111890679359
377,20.12184211735125
378,20.93642834453866
379,21.145953788025098
380,21.422245101155409
11,375438025.8872193
62,226391112.5329722
198,149046913.35424707
295,37827000.0
325,37827000.0
2,4, 1, 4, 0,11, 0.00,60.00,Wednesday
6,8.9
7,0.005358564763089773
8,77.0
375,29.560752306464079
376,29.28903360628629
377,20.45430679382475
378,21.359101370884724
379,21.61975912560441
380,22.08976876214594
11,375438025.8872193
62,226391112.5329722
198,149046913.35424707
295,37827000.0
325,37827000.0
2,4, 1, 4, 0,12, 0.00,60.00,Wednesday
6,9.5875
7,0.005340952873312509
8,73.25
375,30.224128470932376
376,29.950624264312525
377,20.74023959066475
378,21.716436262948649
379,22.02146651871474
380,22.804400537562839
11,375438025.8872193
62,226391112.5329722
198,149046913.35424707
295,37827000.0
325,37827000.0
2,4, 1, 4, 0,13, 0.00,60.00,Wednesday
6,10.375
7,0.005462332074517163
8,71.0
375,30.74553021559277
376,30.468338776850755
377,20.997673008339804
378,22.009428697044343
379,22.323069626281524
380,23.292915454169049
11,375438025.8872193
62,226391112.5329722
198,149046913.35424707
295,37827000.0
325,37827000.0
2,4, 1, 4, 0,14, 0.00,60.00,Wednesday
6,10.6